# vtk DataFile Version 3.0
PyPan results file. Generated by PyPan, USU AeroLab (c) 2020.
ASCII
DATASET POLYDATA
POINTS 492 float
-0.75               0.0                 0.0                 
-0.814537763596     -0.0978869646788    -0.00458567403257   
-0.838710069656     -0.0978869646788    0.0                 
-0.725528240204     0.0                 -0.00464247865602   
-0.744386970997     -0.0978869646788    -0.0137440674007    
-0.654508471489     0.0                 -0.0139143215492    
-0.635124564171     -0.0978869646788    -0.0265759583563    
-0.543892621994     0.0                 -0.0269051659852    
-0.497445940971     -0.0978869646788    -0.0404167473316    
-0.404508501291     0.0                 -0.0409174077213    
-0.344828009605     -0.0978869646788    -0.0522924810648    
-0.25               0.0                 -0.0529402531683    
-0.192210048437     -0.0978869646788    -0.058845769614     
-0.0954915061593    0.0                 -0.0595747157931    
-0.0545314066112    -0.0978869646788    -0.057007946074     
0.0438926257193     0.0                 -0.0577141307294    
0.0547309853137     -0.0978869646788    -0.0454854853451    
0.154508501291      0.0                 -0.0460489317775    
0.124881759286      -0.0978869646788    -0.0255764853209    
0.225528255105      0.0                 -0.0258933138102    
0.149054065347      -0.0978869646788    0.0                 
0.25                0.0                 0.0                 
0.124881759286      -0.0978869646788    0.0255764853209     
0.225528255105      0.0                 0.0258933138102     
0.0547309853137     -0.0978869646788    0.0454854853451     
0.154508501291      0.0                 0.0460489317775     
-0.0545314066112    -0.0978869646788    0.057007946074      
0.0438926257193     0.0                 0.0577141307294     
-0.192210048437     -0.0978869646788    0.058845769614      
-0.0954915061593    0.0                 0.0595747157931     
-0.344828009605     -0.0978869646788    0.0522924810648     
-0.25               0.0                 0.0529402531683     
-0.497445940971     -0.0978869646788    0.0404167473316     
-0.404508501291     0.0                 0.0409174077213     
-0.635124564171     -0.0978869646788    0.0265759583563     
-0.543892621994     0.0                 0.0269051659852     
-0.744386970997     -0.0978869646788    0.0137440674007     
-0.654508471489     0.0                 0.0139143215492     
-0.814537763596     -0.0978869646788    0.00458567403257    
-0.725528240204     0.0                 0.00464247865602    
-1.0728533268       -0.381966024637     -0.00442082015797   
-1.09615671635      -0.381966024637     0.0                 
-1.00522446632      -0.381966024637     -0.0132499719039    
-0.899890065193     -0.381966024637     -0.0256205573678    
-0.767160952091     -0.381966024637     -0.0389637760818    
-0.620029568672     -0.381966024637     -0.0504125803709    
-0.472898215055     -0.381966024637     -0.0567302778363    
-0.340169072151     -0.381966024637     -0.0549585260451    
-0.234834641218     -0.381966024637     -0.0438502915204    
-0.167205765843     -0.381966024637     -0.02465701662      
-0.1439024508       -0.381966024637     0.0                 
-0.167205765843     -0.381966024637     0.02465701662       
-0.234834641218     -0.381966024637     0.0438502915204     
-0.340169072151     -0.381966024637     0.0549585260451     
-0.472898215055     -0.381966024637     0.0567302778363     
-0.620029568672     -0.381966024637     0.0504125803709     
-0.767160952091     -0.381966024637     0.0389637760818     
-0.899890065193     -0.381966024637     0.0256205573678     
-1.00522446632      -0.381966024637     0.0132499719039     
-1.0728533268       -0.381966024637     0.00442082015797    
-1.4751894474       -0.824429512024     -0.00416405405849   
-1.49713921547      -0.824429512024     0.0                 
-1.41148853302      -0.824429512024     -0.0124803995714    
-1.31227195263      -0.824429512024     -0.0241324882954    
-1.18725192547      -0.824429512024     -0.0367007181048    
-1.04866611958      -0.824429512024     -0.0474845655262    
-0.910080254078     -0.824429512024     -0.0534353218973    
-0.785060167313     -0.824429512024     -0.0517664775252    
-0.685843646526     -0.824429512024     -0.041303422302     
-0.622142732143     -0.824429512024     -0.0232249125838    
-0.600192904472     -0.824429512024     0.0                 
-0.622142732143     -0.824429512024     0.0232249125838     
-0.685843646526     -0.824429512024     0.041303422302      
-0.785060167313     -0.824429512024     0.0517664775252     
-0.910080254078     -0.824429512024     0.0534353218973     
-1.04866611958      -0.824429512024     0.0474845655262     
-1.18725192547      -0.824429512024     0.0367007181048     
-1.31227195263      -0.824429512024     0.0241324882954     
-1.41148853302      -0.824429512024     0.0124803995714     
-1.4751894474       -0.824429512024     0.00416405405849    
-1.98216235638      -1.38196599483      -0.00384051026776   
-2.00240659714      -1.38196599483      0.0                 
-1.92341089249      -1.38196599483      -0.011510681361     
-1.83190345764      -1.38196599483      -0.0222574118525    
-1.71659743786      -1.38196599483      -0.0338490977883    
-1.58877956867      -1.38196599483      -0.0437950491905    
-1.4609618187       -1.38196599483      -0.0492834374309    
-1.3456556797       -1.38196599483      -0.0477442592382    
-1.25414824486      -1.38196599483      -0.0380941741168    
-1.19539678097      -1.38196599483      -0.0214203540236    
-1.175152421        -1.38196599483      0.0                 
-1.19539678097      -1.38196599483      0.0214203540236     
-1.25414824486      -1.38196599483      0.0380941741168     
-1.3456556797       -1.38196599483      0.0477442592382     
-1.4609618187       -1.38196599483      0.0492834374309     
-1.58877956867      -1.38196599483      0.0437950491905     
-1.71659743786      -1.38196599483      0.0338490977883     
-1.83190345764      -1.38196599483      0.0222574118525     
-1.92341089249      -1.38196599483      0.011510681361      
-1.98216235638      -1.38196599483      0.00384051026776    
-2.54414629936      -2.0                -0.00348185910843   
-2.5625             -2.0                0.0                 
-2.49088144302      -2.0                -0.0104357413948    
-2.40791940689      -2.0                -0.0201788749546    
-2.30338144302      -2.0                -0.0306880548596    
-2.1875             -2.0                -0.0397051908076    
-2.07161855698      -2.0                -0.0446810387075    
-1.9670804739       -2.0                -0.0432855971158    
-1.88411867619      -2.0                -0.0345367006958    
-1.83085381985      -2.0                -0.019419984892     
-1.8125             -2.0                0.0                 
-1.83085381985      -2.0                0.019419984892      
-1.88411867619      -2.0                0.0345367006958     
-1.9670804739       -2.0                0.0432855971158     
-2.07161855698      -2.0                0.0446810387075     
-2.1875             -2.0                0.0397051908076     
-2.30338144302      -2.0                0.0306880548596     
-2.40791940689      -2.0                0.0201788749546     
-2.49088144302      -2.0                0.0104357413948     
-2.54414629936      -2.0                0.00348185910843    
-3.10613012314      -2.61803388596      -0.00312320771627   
-3.12259340286      -2.61803388596      0.0                 
-3.05835175514      -2.61803388596      -0.00936080049723   
-2.98393535614      -2.61803388596      -0.018100336194     
-2.89016532898      -2.61803388596      -0.0275270119309    
-2.78622031212      -2.61803388596      -0.0356153286994    
-2.68227553368      -2.61803388596      -0.0400786362588    
-2.58850550652      -2.61803388596      -0.0388269349933    
-2.51408910751      -2.61803388596      -0.0309792235494    
-2.46631073952      -2.61803388596      -0.0174196157604    
-2.44984745979      -2.61803388596      0.0                 
-2.46631073952      -2.61803388596      0.0174196157604     
-2.51408910751      -2.61803388596      0.0309792235494     
-2.58850550652      -2.61803388596      0.0388269349933     
-2.68227553368      -2.61803388596      0.0400786362588     
-2.78622031212      -2.61803388596      0.0356153286994     
-2.89016532898      -2.61803388596      0.0275270119309     
-2.98393535614      -2.61803388596      0.018100336194      
-3.05835175514      -2.61803388596      0.00936080049723    
-3.10613012314      -2.61803388596      0.00312320771627    
-3.6131029129       -3.17557048798      -0.00279966392554   
-3.62786078453      -3.17557048798      0.0                 
-3.57027435303      -3.17557048798      -0.00839108321816   
-3.50356698036      -3.17557048798      -0.0162252597511    
-3.41951084137      -3.17557048798      -0.0246753934771    
-3.32633399963      -3.17557048798      -0.0319258123636    
-3.23315691948      -3.17557048798      -0.0359267517924    
-3.14910078049      -3.17557048798      -0.0348047204316    
-3.08239364624      -3.17557048798      -0.0277699790895    
-3.03956484795      -3.17557048798      -0.0156150581315    
-3.02480697632      -3.17557048798      0.0                 
-3.03956484795      -3.17557048798      0.0156150581315     
-3.08239364624      -3.17557048798      0.0277699790895     
-3.14910078049      -3.17557048798      0.0348047204316     
-3.23315691948      -3.17557048798      0.0359267517924     
-3.32633399963      -3.17557048798      0.0319258123636     
-3.41951084137      -3.17557048798      0.0246753934771     
-3.50356698036      -3.17557048798      0.0162252597511     
-3.57027435303      -3.17557048798      0.00839108321816    
-3.6131029129       -3.17557048798      0.00279966392554    
-4.01543903351      -3.61803388596      -0.00254289805889   
[...]
CELL_DATA 980
SCALARS pressure_coefficient float 1
LOOKUP_TABLE default
0.964989211439      
0.977514925729      
0.988112759961      
0.978491574395      
0.98440245879       
0.981002365192      
0.983700542075      
0.98313259288       
0.984742102234      
0.985043032189      
0.986335695085      
0.986913485894      
0.987335737854      
0.98725683584       
0.984182945665      
0.980977518161      
0.964173199949      
0.964560773023      
0.90554302776       
0.904249926867      
0.897809965905      
0.905817019833      
0.958200840267      
0.963848955365      
0.982745189149      
0.982437992552      
0.987884289955      
0.987608669548      
0.98670444302       
0.986491657244      
0.984180484325      
0.983901281818      
0.981228814065      
0.980833938704      
0.977766023991      
0.977240005496      
0.973899038217      
0.973607875275      
0.935052791688      
0.877936896124      
0.895553868245      
0.941997272069      
0.974342877404      
0.974313708029      
0.978840499695      
0.977852708988      
0.980696033322      
0.979864956439      
0.982406576005      
0.982051620167      
0.984255873924      
0.98396461702       
0.984984721609      
0.984730465556      
0.980745421797      
0.982929204093      
0.966319613153      
0.968635540965      
0.910210940169      
0.904324758873      
0.903595439371      
0.912126364092      
0.965862434236      
0.972311714428      
0.980496185786      
0.984026249024      
0.985221816977      
0.985312974681      
0.984704084015      
0.984121536628      
0.982531280302      
0.981788626065      
0.980490829095      
0.979427902851      
0.979251828498      
0.97788726635       
0.979018425764      
0.980086588187      
0.974271431631      
0.967639030295      
0.239491511743      
0.770563709883      
0.944772916002      
0.961316662806      
0.971306274038      
0.974645419438      
0.977187540637      
0.978448118819      
0.980423133507      
0.980979985463      
0.982782649425      
0.983299872362      
0.983671639982      
0.98495251676       
0.981154262611      
0.983105098922      
0.968648599608      
0.968153100852      
0.911271893803      
0.904167221274      
0.903166055211      
0.912133538979      
0.966156635016      
0.971709890564      
0.98120253389       
0.984047304114      
0.9843500535        
0.985258006873      
0.984214097061      
0.983850001524      
0.982793067609      
0.982144568818      
0.981595685545      
0.980804498414      
0.981406046956      
0.981233700842      
0.981629916842      
0.9824606184        
0.90171618718       
0.600324628909      
-0.490032036473     
0.587438164472      
0.916498831393      
0.94750739733       
0.965449825791      
0.971110571463      
0.974838361905      
0.977057947204      
0.979185546699      
0.980286313338      
0.981976327262      
0.982985092651      
0.983283746645      
0.984688502439      
0.981741909816      
0.982618507453      
0.969570106791      
0.967571118623      
0.912014124108      
0.904068771044      
0.902273645916      
0.911278360964      
0.96540528396       
0.970533317269      
0.981074454915      
0.983519433924      
0.984241533771      
0.985380000102      
0.984334981995      
0.984387452978      
0.983485611146      
0.983036263729      
0.982696246023      
0.982181655747      
0.982467407144      
0.98244298568       
0.979057155245      
0.973791531145      
0.782199835229      
0.112156881316      
-2.1413983777       
0.200102855628      
0.859648365784      
0.922656098074      
0.955908808009      
0.965459136992      
0.971868570978      
0.974904917707      
0.977888162568      
0.979213773229      
0.981075355528      
0.98241868756       
0.98268634871       
0.98442912072       
0.981763672738      
0.982612733201      
0.970165696125      
0.967904872738      
0.912977240193      
0.904524800263      
0.901109667331      
0.910265793788      
0.964172534636      
0.969704023332      
0.980273797109      
0.983144162323      
0.98367602219       
0.985328987653      
0.984150490618      
0.984516365478      
0.984054384398      
0.983279588828      
0.983764022175      
0.982531116166      
0.982910472768      
0.981513025553      
0.969126032701      
0.949341560301      
0.484075766896      
-1.02356586137      
-14.2031688962      
-2.49806413822      
0.496133805436      
0.780034666603      
0.90354563912       
0.93968701725       
0.956739064553      
0.966808592304      
0.971674641463      
0.97586539103       
0.977852777738      
0.9810548725        
0.981089328137      
0.984247649194      
0.981480744902      
0.983331179479      
0.971053404674      
0.969425141802      
0.914658790907      
0.905824588303      
0.899370623664      
0.908798431494      
0.962261453567      
0.968918253177      
0.978975550105      
0.982894286328      
0.982760835079      
0.985278196948      
0.983603455632      
0.984463649633      
0.984036408116      
0.983104836498      
0.98300827556       
0.981226193861      
0.972926208557      
0.966572172133      
0.869794549784      
0.741783841129      
-1.91138696965      
-9.88319251652      
-64.5539943686      
-13.6122067999      
-0.923182034393     
0.233068119692      
0.718080071136      
0.850208838582      
0.907461731207      
0.941140672209      
0.953012583658      
0.965759000696      
0.969424486423      
0.976666479047      
0.977317342672      
0.982846189628      
0.980522333834      
0.983981510836      
0.972362140881      
0.971768724089      
0.917312567457      
0.907903853244      
0.89640254436       
0.905448676519      
0.958973109774      
0.96663659994       
0.976746712911      
0.981668754822      
0.981132107899      
0.984491891958      
0.981865860611      
0.983457583258      
0.980265755359      
0.980092146828      
0.969399982693      
0.966997080386      
0.90767491629       
0.874673491751      
0.386754496738      
-0.247968824536     
-12.4956510757      
-48.585512005       
-155.073380988      
-34.127129626       
-3.43701977234      
-0.780718531616     
0.400503379934      
0.682668610151      
0.825839480615      
0.892037024359      
0.922882817776      
0.945834272497      
0.956107572539      
0.967323688125      
0.971108219087      
0.978721860587      
0.978244040723      
0.983216798047      
0.973165109761      
0.973687918985      
0.919770142778      
0.909905843241      
0.892261276003      
0.899501351078      
0.954390939635      
0.961705276842      
0.973301515026      
0.97817516976       
0.978021716833      
0.981368923287      
0.977437889267      
0.978876158425      
0.969748299844      
0.968531721538      
0.936468850192      
0.925475919483      
0.770251966757      
0.663281819741      
-0.552037243156     
-2.24023872346      
-32.3929076658      
-122.82498802       
-236.142458143      
-54.0637599009      
-5.66267340101      
-1.77414559971      
0.133769853494      
0.513389843095      
0.760344393627      
0.839180957941      
0.898444096777      
0.923405384708      
0.944604955691      
0.956285346942      
0.965393240321      
0.973243148905      
0.975410148436      
0.981283933783      
0.972885538343      
0.974582547465      
0.920900218725      
0.911423993099      
0.888673801944      
0.893433064659      
0.950372619082      
0.955919763508      
0.969883222946      
0.973308425391      
0.974644144226      
0.97630692715       
0.972395385171      
0.971406910872      
0.958961711007      
0.951819105434      
0.906081529341      
0.873632337203      
0.645374394468      
0.431073050292      
-1.43100021014      
-4.31866260081      
-51.6528656314      
-200.493728421      
-289.10159096       
-68.7581084266      
-6.49845555462      
-2.24435852651      
0.106895401561      
0.452135269613      
0.762184097031      
0.824431671704      
0.901286064294      
0.918984157013      
0.946922611855      
0.953441273861      
0.966396755748      
0.969842342582      
0.974391363619      
0.978778355132      
0.970307475223      
0.975623962169      
0.921189449606      
0.91582300741       
0.88631598871       
0.890264407539      
0.946045604763      
0.950503746568      
0.965514734968      
0.967313040866      
0.972056920209      
0.971508243296      
0.971008122402      
0.967785814768      
0.957859726208      
0.946042744636      
0.903686915266      
0.853292029804      
0.63226599875       
0.329554917096      
-1.72089541208      
-5.61807992969      
-64.9013739034      
-270.945230438      
-45.4100255362      
-4.07718729437      
-1.43168146636      
0.319939727149      
0.56801169926       
0.810772377726      
0.860392139252      
0.920196524345      
0.935409065003      
0.956242865129      
0.962813905852      
0.971070131358      
0.975468532256      
0.975879013916      
0.980407508203      
0.966641386662      
0.971260908086      
0.867945236504      
-37.8781920355      
-3.36434115453      
-1.01397868527      
0.429472888341      
0.649706539805      
0.843904160592      
0.887062234532      
0.933886456211      
0.946273750477      
0.962451879569      
0.967069306576      
0.973378459662      
0.976013628462      
0.975783543449      
0.978629478972      
0.965448265687      
0.9694098166        
0.873207990274      
-35.3477317545      
-3.14456110747      
-0.836601215043     
0.485469695218      
0.693369320359      
0.865869055812      
0.904251908908      
0.944183643871      
0.954459519442      
0.967269030676      
0.970843744513      
0.974727591902      
0.976792317319      
0.974200013604      
0.976748094462      
0.960258756788      
0.964554480955      
0.862226318142      
-37.1864364109      
-3.38995202484      
-0.863855808522     
0.490321248405      
0.705684276944      
0.876884093843      
0.913709051142      
0.951180901717      
0.96040309477       
0.971043891693      
0.974184340751      
0.975991762208      
0.9778446832        
0.973017108506      
0.975207962285      
0.955394293397      
0.95872013531       
0.848473907367      
-43.8066556026      
-4.22315346128      
-1.09651263428      
0.425000582357      
0.686674963221      
0.870684894418      
0.914546758361      
0.951747671884      
0.962800088165      
0.97150151184       
0.975619255762      
0.975121670581      
0.977711217428      
0.970054909196      
0.972682321194      
0.947594417917      
0.950835576803      
0.82457857444       
0.877206781041      
0.94476155713       
0.982651608087      
0.97791407601       
0.984194296382      
0.980990951677      
0.983713481939      
0.983137836649      
0.984753838078      
0.985046756675      
0.986339740791      
0.986914812624      
0.987333277556      
0.987256033916      
0.984174015192      
0.980973582631      
0.964154484876      
0.964549565975      
0.905517539124      
0.904238322904      
0.897825512162      
0.905832737802      
0.958218354074      
0.963861281498      
0.982752316147      
0.982442457495      
0.987884974849      
0.987609216621      
0.986698758562      
0.986488714694      
0.984166877565      
0.983894034064      
0.981208504782      
0.980823776208      
0.977826317043      
0.977292963152      
0.976256903884      
0.976157953974      
0.974876956533      
0.960180095282      
0.961472653555      
0.97161599454       
0.98213632318       
0.977019412236      
0.980700827431      
0.977964854214      
0.981161250149      
0.979931032671      
0.982555155486      
0.982095243834      
0.984308396115      
0.983979341044      
0.984982175964      
0.984721203872      
0.980697315254      
0.982896414209      
0.96622209987       
0.9685754028        
0.910089745737      
0.904271881952      
0.903678382231      
0.9122121899        
0.965954831409      
0.972378442125      
0.980540828396      
0.984059626821      
0.985221926948      
0.985318598274      
0.984654557454      
0.984098162887      
0.982404067603      
0.981730764141      
0.980159234633      
0.979354954603      
0.97803138306       
0.977477004613      
0.97425507113       
0.974503892694      
0.94230507485       
0.906441444617      
0.520116658503      
0.903355129364      
0.97907863951       
0.980637825173      
0.981083039953      
0.979798662291      
0.980818935164      
0.980072173382      
0.981843129184      
0.981578019746      
0.983306226941      
0.983510476587      
0.983775880229      
0.984972230653      
0.980998508235      
0.982990969951      
0.968255723292      
0.967910221577      
0.910764502893      
0.903949965313      
0.903494623684      
0.912486845071      
0.966519674698      
0.971982882167      
0.98135487734       
0.984166792184      
0.984270781624      
0.985222271434      
0.983792495414      
0.983576027428      
0.981688266061      
0.981353649977      
0.97886232519       
0.978542218486      
0.974389536246      
0.973651069363      
0.96024709704       
0.951753123747      
0.766906348991      
0.338647337223      
-0.0801443559826    
0.782164983502      
0.96768787303       
0.978463113611      
0.980967303367      
0.981483916825      
0.981376176766      
0.98142006664       
0.982263806359      
0.982309271057      
0.983353446025      
0.983863387904      
0.983635847035      
0.984873143388      
0.981312376144      
0.982281037764      
0.968362502968      
0.966746600422      
0.910398626823      
0.903308099518      
0.903280677241      
0.912498212952      
0.966508811314      
0.971458634429      
0.981501612801      
0.983872764932      
0.983967083944      
0.985144130011      
0.983180717128      
0.983343680769      
0.980946446543      
0.980598482105      
0.977495152033      
0.976717359904      
0.970954976871      
0.968645706259      
0.946831947643      
0.926876448813      
0.586386170344      
-0.264150901696     
-1.52768311233      
0.489724405578      
0.936792157787      
0.969427965301      
0.979770266914      
0.981704090275      
0.982252503175      
0.982086744726      
0.982989486593      
0.982732438756      
0.983453723581      
0.984038021245      
0.983271311024      
0.984755087478      
0.980820328479      
0.981816624269      
0.967568360404      
0.96595664967       
0.909445235118      
0.902699549283      
0.903235459575      
0.913165958355      
0.966531783625      
0.971875610225      
0.981204052991      
0.983980418861      
0.983217441651      
0.984929497233      
0.982117523951      
0.98265098327       
0.979764610646      
0.97914071162       
0.975373263924      
0.973721240411      
0.965034180992      
0.960291241909      
0.920461649189      
0.879313234353      
0.192757235276      
-1.57750661244      
-12.8036039191      
-1.84264576059      
0.67091528617       
0.884660347335      
0.957122052604      
0.975072963312      
0.979786954779      
0.981783493759      
0.982864998573      
0.982876327406      
0.983048636238      
0.984205912314      
0.982448644273      
0.984859840908      
0.979668245466      
0.981717160761      
0.965871145503      
0.965473359405      
0.90752415331       
0.90207418706       
0.903504538968      
0.914659607634      
0.966924826695      
0.97330391192       
0.980756937682      
0.984587524863      
0.98168659486       
0.98452371926       
0.979194757226      
0.980807623064      
0.974708751665      
0.974730718457      
0.964552124567      
0.962543814418      
0.933115115223      
0.919900060713      
0.760336140037      
0.584794338444      
-2.57094880708      
-11.1318081205      
-61.605188533       
-12.2307271438      
-0.554709181333     
0.454946463797      
0.831032096366      
0.925967337466      
0.956111114082      
0.973615195403      
0.97672797261       
0.981164115111      
0.980600226151      
0.983721689166      
0.980559189979      
0.984441184585      
0.977319541865      
0.980867351925      
0.962435907666      
0.963771381182      
0.90342986269       
0.900159147485      
0.904234072965      
0.917292543491      
0.967848954071      
0.975476991153      
0.97990507308       
0.984924974913      
0.978522325212      
0.982569746911      
0.972404480538      
0.975286436184      
0.960575732435      
0.961722806176      
0.930606589105      
0.92657459453       
0.824053469195      
0.774919487937      
0.156644871966      
-0.580568749157     
-13.883516254       
-51.2167474436      
-150.502801586      
-31.9662893012      
-2.8621375144       
-0.429042369102     
0.577913691216      
0.805732644555      
0.902958175803      
0.946949224604      
0.960933093694      
0.973198671189      
0.974364226867      
0.980408863614      
0.976726411669      
0.982045489989      
0.973427291982      
0.978009639797      
0.957320281549      
0.959639488989      
0.897356011812      
0.896033573727      
0.904927787161      
0.920179934123      
0.96859047851       
0.977092098587      
0.978094518381      
0.983555179393      
0.973435302912      
0.977432961529      
0.961919517853      
0.963888714589      
0.938078909715      
0.936376553746      
0.874840146613      
0.857976137507      
0.638591390588      
0.502147262003      
-0.912312287464     
-2.76730350376      
-34.5591768728      
-126.963005731      
-230.495346365      
-51.3493798979      
-4.95166333051      
-1.32869110817      
0.353428048856      
0.671745671423      
0.856009003975      
0.912247850477      
0.946044318659      
0.961169626752      
0.967842704613      
0.974831276448      
0.972823822829      
0.978246212104      
0.969636703615      
0.974278019682      
0.952835691582      
0.955018020683      
0.892248393518      
0.891543947669      
0.905112384741      
0.921257815629      
0.968448571704      
0.976684320368      
0.97571177182       
0.980179442777      
0.968512780801      
0.970256523117      
0.95255193219       
0.950227259109      
0.919163419423      
0.907877682608      
0.82938303162       
0.784771542854      
0.481779176302      
0.224073689812      
-1.87983775971      
-4.98942633338      
-54.3673692285      
-205.763598169      
-282.804652269      
-65.6737805809      
-5.74026167476      
-1.75540342944      
0.331597240682      
0.621602874545      
0.856741634577      
0.902095680858      
0.947492997945      
0.958933276136      
0.96891904676       
0.973096435548      
0.972625229263      
0.975326453647      
0.967649194574      
0.971239281703      
0.949797144896      
0.952995747327      
0.890350305834      
0.88965515583       
0.901904542169      
0.917309567997      
0.963674140713      
0.971258299223      
0.971082516302      
0.973280206689      
0.965938044918      
0.964316476159      
0.951098191203      
0.944935271756      
0.917966735346      
0.899131137148      
0.826657271963      
0.758488519388      
0.464640838774      
0.106780678778      
-2.20080582094      
-6.36724559235      
-67.9617790575      
-277.078272471      
-44.3129957322      
-3.74125497025      
-1.2120447121       
0.463502635069      
0.664152875734      
0.88133783784       
0.909929058372      
0.957864510641      
0.962537543184      
0.975825909825      
0.976356337773      
0.978043785401      
0.9782993602        
0.971437795601      
0.972435032846      
0.947694303121      
0.949125723843      
0.826949140615      
-38.1222833043      
-3.34345794795      
-0.997024143505     
0.485364795392      
0.682537302834      
0.880479164022      
0.912177461536      
0.956536664513      
0.963845834046      
0.976097786497      
0.978661390734      
0.980226560312      
0.982228678476      
0.976075226977      
0.97894415423       
0.956740579622      
0.961234154306      
0.84825569257       
-36.4149823271      
-3.389421277        
-0.952976664298     
0.455037519381      
0.675671880476      
0.865468603626      
0.905549088594      
0.948933260574      
0.959726304662      
0.972597295878      
0.976716023579      
0.979711359015      
0.982462460357      
0.978489086793      
0.981904082982      
0.963102819871      
0.968749224724      
0.858887641472      
-38.8057418727      
-3.87658070668      
-1.08714998459      
0.372790477633      