# vtk DataFile Version 3.0
PyPan results file. Generated by PyPan, USU AeroLab (c) 2020.
ASCII
DATASET POLYDATA
POINTS 1202 float
-21.3197593689      -10.3317604065      39.3700790405       
-21.3197593689      -5.39737701416      39.0596389771       
-21.9382095337      -5.4362859726       39.0596389771       
-22.5468902588      -5.55240011215      39.0596389771       
-23.1362304688      -5.74388694763      39.0596389771       
-23.6969203949      -6.00772714615      39.0596389771       
-24.2201194763      -6.33975982666      39.0596389771       
-24.6975803375      -6.73474979401      39.0596389771       
-25.1217708588      -7.18646621704      39.0596389771       
-25.486000061       -7.68778514862      39.0596389771       
-25.7845191956      -8.23080158234      39.0596389771       
-26.0126399994      -8.8069524765       39.0596389771       
-26.1667404175      -9.40714836121      39.0596389771       
-26.2444095612      -10.0219297409      39.0596389771       
-26.2444095612      -10.6415901184      39.0596389771       
-26.1667404175      -11.2563695908      39.0596389771       
-26.0126399994      -11.8565702438      39.0596389771       
-25.7845191956      -12.4327201843      39.0596389771       
-25.486000061       -12.9757299423      39.0596389771       
-25.1217708588      -13.4770498276      39.0596389771       
-24.6975708008      -13.9287700653      39.0596389771       
-24.2201194763      -14.3237600327      39.0596389771       
-23.6969108582      -14.655790329       39.0596389771       
-23.1362304688      -14.9196300507      39.0596389771       
-22.5468902588      -15.1111097336      39.0596389771       
-21.9381999969      -15.227230072       39.0596389771       
-21.3197593689      -15.2661399841      39.0596389771       
-20.7013206482      -15.227230072       39.0596389771       
-20.0926303864      -15.1111097336      39.0596389771       
-19.5032901764      -14.9196195602      39.0596389771       
-18.9426002502      -14.6557798386      39.0596389771       
-18.4193992615      -14.3237495422      39.0596389771       
-17.9419403076      -13.9287595749      39.0596389771       
-17.5177497864      -13.4770402908      39.0596389771       
-17.1535301208      -12.9757204056      39.0596389771       
-16.8549995422      -12.4327096939      39.0596389771       
-16.6268901825      -11.8565597534      39.0596389771       
-16.4727802277      -11.256360054       39.0596389771       
-16.3951206207      -10.641579628       39.0596389771       
-16.3951206207      -10.0219202042      39.0596389771       
-16.4727897644      -9.40713787079      39.0596389771       
-16.6268901825      -8.80694103241      39.0596389771       
-16.855009079       -8.23079204559      39.0596389771       
-17.1535301208      -7.68777608871      39.0596389771       
-17.5177707672      -7.18645811081      39.0596389771       
-17.9419593811      -6.73474216461      39.0596389771       
-18.4194202423      -6.33975410461      39.0596389771       
-18.9426193237      -6.00772190094      39.0596389771       
-19.5033092499      -5.74388313293      39.0596389771       
-20.0926399231      -5.55239677429      39.0596389771       
-20.7013301849      -5.43628501892      39.0596389771       
-22.5468902588      -0.618020117283     38.133190155        
-21.3197593689      -0.540815412998     38.133190155        
-23.7546691895      -0.84841632843      38.133190155        
-24.9240493774      -1.22837102413      38.133190155        
-26.0365905762      -1.75188994408      38.133190155        
-27.0747394562      -2.41072010994      38.133190155        
-28.0221290588      -3.19446897507      38.133190155        
-28.8638191223      -4.09077787399      38.133190155        
-29.5865306854      -5.08551120758      38.133190155        
-30.1788692474      -6.16298007965      38.133190155        
-30.6315002441      -7.30619287491      38.133190155        
-30.9372806549      -8.49712181091      38.133190155        
-31.0913791656      -9.71698379517      38.133190155        
-31.0913791656      -10.9465398788      38.133190155        
-30.9372806549      -12.1663999557      38.133190155        
-30.6315002441      -13.3573303223      38.133190155        
-30.1788692474      -14.5005397797      38.133190155        
-29.5865192413      -15.5780096054      38.133190155        
-28.8638095856      -16.5727405548      38.133190155        
-28.0221195221      -17.4690494537      38.133190155        
-27.0747299194      -18.2527999878      38.133190155        
-26.0365791321      -18.9116306305      38.133190155        
-24.9240398407      -19.4351501465      38.133190155        
-23.7546596527      -19.8150997162      38.133190155        
-22.546880722       -20.0454902649      38.133190155        
-21.3197498322      -20.1226997375      38.133190155        
-20.0926208496      -20.0454902649      38.133190155        
-18.8848495483      -19.8150901794      38.133190155        
-17.7154693604      -19.4351406097      38.133190155        
-16.602930069       -18.9116191864      38.133190155        
-15.5647802353      -18.252790451       38.133190155        
-14.617389679       -17.469039917       38.133190155        
-13.7757101059      -16.5727291107      38.133190155        
-13.0529899597      -15.5779895782      38.133190155        
-12.460650444       -14.5005197525      38.133190155        
-12.008020401       -13.3573102951      38.133190155        
-11.7022399902      -12.1663799286      38.133190155        
-11.5481395721      -10.9465198517      38.133190155        
-11.5481395721      -9.71696281433      38.133190155        
-11.702249527       -8.49710083008      38.133190155        
-12.0080299377      -7.30617284775      38.133190155        
-12.4606599808      -6.16296100616      38.133190155        
-13.0530099869      -5.08549308777      38.133190155        
-13.7757196426      -4.09076213837      38.133190155        
-14.6174201965      -3.19445490837      38.133190155        
-15.5648097992      -2.41070699692      38.133190155        
-16.6029605865      -1.75188004971      38.133190155        
-17.7154998779      -1.22836196423      38.133190155        
-18.8848800659      -0.848410606384     38.133190155        
-20.0926494598      -0.618017196655     38.133190155        
-23.1362304688      4.04705381393       36.6053695679       
-21.3197593689      4.1613368988        36.6053695679       
-24.9240493774      3.70600891113       36.6053695679       
-26.6550292969      3.14357995987       36.6053695679       
-28.3018703461      2.36863708496       36.6053695679       
-29.8385906219      1.39340102673       36.6053695679       
-31.2409706116      0.233251601458      36.6053695679       
-32.4868888855      -1.09351396561      36.6053695679       
-33.5566902161      -2.56597304344      36.6053695679       
-34.4335098267      -4.16090297699      36.6053695679       
-35.1035194397      -5.8531498909       36.6053695679       
-35.5561408997      -7.61602878571      36.6053695679       
-35.7842597961      -9.42173576355      36.6053695679       
-35.7842597961      -11.2417898178      36.6053695679       
-35.5561408997      -13.0474996567      36.6053695679       
-35.1035118103      -14.810379982       36.6053695679       
-34.4334983826      -16.502620697       36.6053695679       
-33.556678772       -18.0975494385      36.6053695679       
-32.4868812561      -19.5700092316      36.6053695679       
-31.2409591675      -20.8967704773      36.6053695679       
-29.8385791779      -22.0569190979      36.6053695679       
-28.3018608093      -23.0321598053      36.6053695679       
-26.6550197601      -23.807100296       36.6053695679       
-24.9240398407      -24.3695297241      36.6053695679       
-23.136220932       -24.7105693817      36.6053695679       
-21.3197498322      -24.8248500824      36.6053695679       
-19.5032806396      -24.7105693817      36.6053695679       
-17.7154598236      -24.3695201874      36.6053695679       
-15.9844799042      -23.8070907593      36.6053695679       
-14.3376502991      -23.0321407318      36.6053695679       
-12.8009195328      -22.0569095612      36.6053695679       
-11.3985395432      -20.8967609406      36.6053695679       
-10.1526298523      -19.5699901581      36.6053695679       
-9.0828294754       -18.097530365       36.6053695679       
-8.20601177216      -16.5025997162      36.6053695679       
-7.53600597382      -14.8103504181      36.6053695679       
-7.08337783813      -13.0474700928      36.6053695679       
-6.85526704788      -11.2417602539      36.6053695679       
-6.85526990891      -9.4217042923       36.6053695679       
-7.08338594437      -7.61599779129      36.6053695679       
-7.53601884842      -5.85311985016      36.6053695679       
-8.20603084564      -4.16087388992      36.6053695679       
-9.08285427094      -2.56594610214      36.6053695679       
-10.1526603699      -1.09349095821      36.6053695679       
-11.3985795975      0.233272597194      36.6053695679       
-12.8009595871      1.39341902733       36.6053695679       
-14.3376903534      2.36865210533       36.6053695679       
-15.9845304489      3.1435918808        36.6053695679       
-17.7155094147      3.70601701736       36.6053695679       
-19.5033302307      4.04705810547       36.6053695679       
-23.6969203949      8.48536682129       34.5002593994       
-21.3197593689      8.63492584229       34.5002593994       
-26.0365905762      8.03905105591       34.5002593994       
-28.3018703461      7.30301904678       34.5002593994       
-30.4570407867      6.28887176514       34.5002593994       
-32.4681015015      5.01260900497       34.5002593994       
-34.3033485413      3.49435591698       34.5002593994       
-35.9338493347      1.75805795193       34.5002593994       
-37.3338699341      -0.168905302882     34.5002593994       
-38.4813308716      -2.25614309311      34.5002593994       
[...]
CELL_DATA 2400
SCALARS pressure_coefficient float 1
LOOKUP_TABLE default
-7.06780300769      
-7.07910880464      
-7.07163589448      
-7.0743450117       
-7.07496058604      
-7.07367045457      
-7.07389441188      
-7.07412364565      
-7.07597353284      
-7.07187690812      
-7.0758671017       
-7.07180355107      
-7.07660943274      
-7.07328354226      
-7.07341434389      
-7.07200066762      
-7.07847584981      
-7.07406879817      
-7.06899932786      
-7.07892202903      
-7.06960802077      
-7.07865510624      
-7.07268930154      
-7.07300076576      
-7.07468222897      
-7.07579483875      
-7.07339162679      
-7.07389188389      
-7.07616102858      
-7.07478051638      
-7.07369184759      
-7.07211706188      
-7.07756845748      
-7.07455636764      
-7.07432963555      
-7.0723862761       
-7.0741801005       
-7.07697695174      
-7.07156925857      
-7.07576758451      
-7.07327312213      
-7.07629318217      
-7.07141565007      
-7.07546440566      
-7.07439745077      
-7.0752797239       
-7.07344571998      
-7.07649858369      
-7.07113474197      
-7.08080171403      
-1693.96138328      
-106.142752212      
-1694.14078277      
-106.139783617      
-1694.03545785      
-106.13965839       
-1694.0603048       
-106.142438781      
-1694.06651151      
-106.138619247      
-1694.03974203      
-106.138821318      
-1694.04386737      
-106.141090831      
-1694.04878701      
-106.135172074      
-1694.07618619      
-106.141225426      
-1694.02429589      
-106.137590882      
-1694.07408924      
-106.140850985      
-1694.01988796      
-106.139267349      
-1694.0969799       
-106.139577658      
-1694.03603031      
-106.137600857      
-1694.03333011      
-106.143426943      
-1694.01847329      
-106.135571608      
-1694.16262501      
-106.144500322      
-1694.05054278      
-106.13740237       
-1693.94195929      
-106.139334151      
-1694.13570271      
-106.138523257      
-1694.00127799      
-106.140205865      
-1694.16631099      
-106.142745842      
-1694.03107722      
-106.140200328      
-1694.03646879      
-106.139234704      
-1694.05270505      
-106.138677741      
-1694.06489661      
-106.136882995      
-1693.99604389      
-106.135681476      
-1694.00740939      
-106.140424607      
-1694.06733324      
-106.141425993      
-1694.07391809      
-106.142090119      
-1694.04165525      
-106.136785507      
-1694.02018879      
-106.136138945      
-1694.11987451      
-106.143460058      
-1694.07785499      
-106.139605364      
-1694.05792743      
-106.13675518       
-1694.00816953      
-106.141026983      
-1694.02251931      
-106.136268046      
-1694.10552802      
-106.138933018      
-1694.00350592      
-106.140505708      
-1694.05927599      
-106.13857442       
-1694.02621966      
-106.137292178      
-1694.08082613      
-106.142136261      
-1693.9845966       
-106.133154095      
-1694.07191999      
-106.144384682      
-1694.03745038      
-106.135792851      
-1694.07112281      
-106.139423084      
-1694.05749195      
-106.141210134      
-1694.09050356      
-106.141062111      
-1693.96091349      
-106.138656462      
-1694.13444729      
-106.129136142      
-292.395269041      
-63.1381069049      
-292.397196133      
-63.1331827497      
-292.394408808      
-63.1314338082      
-292.389913619      
-63.1325527528      
-292.397188461      
-63.1322033598      
-292.398749438      
-63.1318648599      
-292.39667197       
-63.1329513374      
-292.398892623      
-63.1310637226      
-292.400342861      
-63.1330911299      
-292.399479175      
-63.1331038034      
-292.397296224      
-63.1326059093      
-292.396141716      
-63.1324455828      
-292.400348279      
-63.1318093212      
-292.407011791      
-63.1346012191      
-292.392132753      
-63.1329425505      
-292.402028213      
-63.1314791865      
-292.387398378      
-63.1320327804      
-292.402871853      
-63.1317038838      
-292.397993533      
-63.1335600715      
-292.3964029        
-63.1329727703      
-292.392546302      
-63.1300492702      
-292.395917472      
-63.1334328206      
-292.394505127      
-63.1327852904      
-292.39675336       
-63.1319489339      
-292.401342524      
-63.1331195884      
-292.399634298      
-63.1319248074      
-292.407714654      
-63.1337054791      
-292.397437059      
-63.1340999927      
-292.392140324      
-63.1309739403      
-292.399128207      
-63.1322062883      
-292.393881742      
-63.1323560147      
-292.401454162      
-63.1315008463      
-292.383739805      
-63.1325564982      
-292.396945774      
-63.1315637402      
-292.404819427      
-63.1332642563      
-292.393801246      
-63.1314677687      
-292.398113608      
-63.133185522       
-292.396587929      
-63.1312672433      
-292.392790509      
-63.1317489043      
-292.394667291      
-63.1317726535      
-292.397299013      
-63.1317409229      
-292.391320603      
-63.1318290143      
-292.407591922      
-63.1324206866      
-292.383118109      
-63.1311401171      
-292.39701031       
-63.1312369761      
-292.400126708      
-63.1334251735      
-292.391984577      
-63.1324536344      
-292.392614915      
-63.1314556918      
-292.396705321      
-63.1350215251      
-292.413890623      
-63.1222336492      
-80.6521993251      
-32.2975914588      
-80.6549263673      
-32.2949864939      
-80.6538343062      
-32.2944328103      
-80.6526861294      
-32.2947672869      
-80.6546325495      
-32.293201744       
-80.6548380636      
-32.2940811617      
-80.6541082181      
-32.2944507888      
-80.6540352601      
-32.2943787051      
-80.6543532253      
-32.2940648527      
-80.6546470629      
-32.2945729918      
-80.6554399041      
-32.2942541447      
-80.6557828188      
-32.2947050114      
-80.6570788275      
-32.2954866343      
-80.6530008756      
-32.2936940286      
-80.653996178       
-32.2947051516      
-80.6565723505      
-32.294368933       
-80.6553170413      
-32.2954384499      
-80.6562130169      
-32.2950884634      
-80.6520318087      
-32.2930131534      
-80.6538461883      
-32.2944350536      
-80.6577255665      
-32.2949500393      
-80.6540712219      
-32.2946668913      
-80.6541576611      
-32.2937151297      
-80.6567239468      
-32.2945514806      
-80.6526917202      
-32.2948109693      
-80.6533140149      
-32.2933144496      
-80.6539103142      
-32.2939995334      
-80.6527737999      
-32.2946583602      
-80.6556560415      
-32.2920251177      
-80.6541816686      
-32.2955934611      
-80.654715359       
-32.293482634       
-80.655101027       
-32.2945659703      
-80.6545707658      
-32.2936197948      
-80.6551113001      
-32.2950319439      
-80.6541235268      
-32.2936079224      
-80.6548315499      
-32.2945369855      
-80.653089873       
-32.2947471733      
-80.654740193       
-32.293197373       
-80.6540408941      
-32.2942388053      
-80.6538356364      
-32.2938793563      
-80.6546785621      
-32.2943398081      
-80.6542309034      
-32.2942670241      
-80.6544975251      
-32.2940176133      
-80.6534294935      
-32.2941264091      
-80.655469854       
-32.2944904358      
-80.6528510142      
-32.2941857885      
-80.6534884522      
-32.2944149028      
-80.654138334       
-32.2938562332      
-80.6479164982      
-32.2961392582      
-80.6654790533      
-32.2882586737      
-26.0574753286      
-16.8609749914      
-26.0584170697      
-16.8608352626      
-26.0593008635      
-16.8595809342      
-26.0582713404      
-16.8602368218      
-26.0598846984      
-16.8593388291      
-26.0590269025      
-16.8608995623      
-26.0590317903      
-16.8606894897      
-26.0590941552      
-16.8596899177      
-26.059035087       
-16.8601710472      
-26.0592525497      
-16.8603269506      
-26.058762508       
-16.8604553421      
-26.0590977671      
-16.8605463909      
-26.0581466867      
-16.8594413444      
-26.0597123696      
-16.8604514192      
-26.0592329697      
-16.8606007613      
-26.0587687467      
-16.8600791033      
-26.0591577054      
-16.8604077345      
-26.0588976467      
-16.8604894216      
-26.0600489009      
-16.859628885       
-26.0599943627      
-16.8608604517      
-26.0592004484      
-16.8608888511      
-26.0590520352      
-16.8601034349      
-26.0592241046      
-16.8601637468      
-26.0584946877      
-16.8599080621      
-26.0592675388      
-16.8608711652      
-26.0604560458      
-16.8605801992      
-26.0584157081      
-16.8597751414      
-26.0586720966      
-16.8601534737      
-26.0611152975      
-16.8609859728      
-26.0573315909      
-16.8597897587      
-26.0600123679      
-16.8603968416      
-26.0576549183      
-16.8599416826      
-26.0599636298      
-16.8600827826      
-26.0585977998      
-16.8605065731      
-26.0602653293      
-16.8604079514      
-26.057853016       
-16.8601538805      
-26.0582479355      
-16.8593385505      
-26.0600289813      
-16.8606608101      
-26.0591507989      
-16.8602491576      
-26.0594541529      
-16.8603946439      
-26.0587719801      
-16.8600215203      
-26.0591122396      
-16.8602797522      
-26.0590754336      
-16.8599658285      
-26.0590663098      
-16.86017335        
-26.0587329012      
-16.8600808786      
-26.0587612475      
-16.8601104028      
-26.058882835       
-16.8600192403      
-26.0594807343      
-16.86058421        
-26.055929241       
-16.8608050022      
-26.064224111       
-16.8578584891      
-8.47967161697      
-8.90175574113      
-8.47886090231      
-8.90088965378      
-8.47931318735      
-8.90030697796      
-8.47938744101      
-8.90070583396      
-8.47992225779      
-8.90153451617      
-8.47881655213      
-8.90061679588      
-8.47965553283      
-8.90049328706      
-8.4791765012       
-8.90043564574      
-8.47940316472      
-8.90098964654      
-8.47939273242      
-8.90046895471      
-8.4795206627       
-8.90102654076      
-8.47935122737      
-8.90065400673      
-8.48007286157      
-8.90105311409      
-8.47930558632      
-8.90082315726      
-8.47916516523      
-8.90024860734      
-8.47944800249      
-8.90068764273      
-8.47927169801      
-8.9005878236       
-8.47904735475      
-8.90066763341      
-8.47998919805      
-8.90112371596      
-8.47918637642      
-8.90027007106      
-8.47931137959      
-8.90109292443      
-8.47942833407      
-8.90060887863      
-8.47935853279      
-8.90089735797      
-8.47990760464      
-8.90113696868      
-8.4789808832       
-8.90006685992      
-8.47879542681      
-8.90057649074      
-8.47981753608      
-8.90077314761      
-8.47951739077      
-8.90098279072      
-8.47934885228      
-8.90054751531      
-8.47971988158      
-8.90068681138      
-8.47919394953      
-8.90048156762      
-8.47924686856      
-8.90048889572      
-8.47971235643      
-8.90102189804      
-8.47927409934      
-8.9006152788       
-8.47927424261      
-8.90098575345      
-8.47935090105      
-8.90027522542      
-8.47981609456      
-8.90091114471      
-8.47892215718      
-8.90051623188      
-8.47936633532      
-8.90066589563      
-8.47931124379      
-8.90062229145      
-8.47934507594      
-8.90058295895      
-8.47916885263      
-8.90059697671      
-8.47939813596      
-8.90064470703      
-8.47945036995      
-8.90073045044      
-8.47928060052      
-8.90069565627      
-8.47932794761      
-8.90085399682      
-8.4794764843       
-8.90058924282      
-8.47928444251      
-8.90097964018      
-8.4780647575       
-8.90098996202      
-8.48069064059      
-8.89851988707      
-2.29824478941      
-4.55542912191      
-2.29819960885      
-4.55518310889      
-2.29840112433      
-4.55477251799      
-2.29834763497      
-4.55515071975      
-2.29789549039      
-4.5546844514       
-2.29842858906      
-4.55519137228      
-2.2982634182       
-4.55479370345      
-2.29838809991      
-4.55490789404      
-2.29815498861      
-4.55491171284      
-2.29826875233      
-4.55490263009      
-2.29829131642      
-4.55507262754      
-2.29824462356      
-4.55471831513      
-2.29819532395      
-4.55513067221      
-2.29815859048      
-4.55488742172      
-2.29833597893      
-4.55508391827      
-2.29829918474      
-4.55503458471      
-2.29826022122      
-4.55494428126      
-2.29849453127      
-4.5551184918       
-2.29808172418      
-4.55476873635      
-2.2985580247       
-4.55477974433      
-2.29805065543      
-4.555151034        
-2.29834101101      
-4.55494651736      
-2.29808597122      
-4.55477011062      
-2.29824165011      
-4.55511629873      
-2.29856119503      
-4.55520438574      
-2.29822404398      
-4.55476850601      
-2.29852405433      
-4.55507837919      
-2.29815811158      
-4.55498156988      
-2.29834882752      
-4.55490197825      
-2.29820243309      
-4.55497470049      
-2.29848090811      
-4.55520857295      
-2.29843265086      
-4.5548274322       
-2.2981484261       
-4.55481118682      
-2.29832796227      
-4.55510311         
-2.29810151279      
-4.55461774603      
-2.29860514445      
-4.5553142187       
-2.29819245061      
-4.55477537184      
-2.29837677923      
-4.55492529044      
-2.29825416019      
-4.55488743107      
-2.29826321889      
-4.55491108348      
-2.29828905416      
-4.55496003644      
-2.29829929625      
-4.55493289045      
-2.29832030807      
-4.55488595523      
-2.29817632873      
-4.55489329688      
-2.29828188219      
-4.55483665924      
-2.29820599905      
-4.55481929969      
-2.29834742059      
-4.55487318915      
-2.29821156893      
-4.55501956891      
-2.29750757587      
-4.55483571179      
-2.29927093691      
-4.55401561398      
-0.145279409806     
-2.09326849492      
-0.145237675988     
-2.09298046554      
-0.145343605163     
-2.0929451601       
-0.145221017308     
-2.09276771718      
-0.145433555644     
-2.09316628476      
-0.145198694126     
-2.09275949338      
-0.145300927614     
-2.09292713873      
-0.145312037482     
-2.09291299671      
-0.145271409361     
-2.0929579447       
-0.145305782854     
-2.09296096298      
-0.14525641518      
-2.09282531736      
-0.14530228384      
-2.09297275139      
-0.145249057725     
-2.09290140542      
-0.145353605306     
-2.0929908604       
-0.145289533398     
-2.09278939349      
-0.145276976808     
-2.09297218309      
-0.145287155035     
-2.0929935401       
-0.145223483105     
-2.09286631071      
-0.145263238336     
-2.09292222151      
-0.145370344609     
-2.09290603159      
-0.145290210026     
-2.09298235594      
-0.145354671651     
-2.09295853148      
-0.145362091735     
-2.09297825287      
-0.145285610394     
-2.09289505946      
-0.145258699584     
-2.0929190988       
-0.145425513797     
-2.09294754158      
-0.145219815319     
-2.093014053        
-0.14533471498      
-2.09296007448      
-0.145356052309     
-2.09297552343      
-0.145278587174     
-2.09293557113      
-0.145211478575     
-2.09280328525      
-0.14539611351      
-2.09296695298      
-0.145346153243     
-2.09305938922      
-0.145248856367     
-2.09295163039      
-0.145369838076     
-2.09295974226      
-0.145169208047     
-2.09282090248      
-0.145391534813     
-2.09302119093      
-0.145276659123     
-2.09291750769      
-0.14530164221      
-2.09296741492      
-0.145319057661     
-2.09294848648      
-0.145300093989     
-2.0928789915       
-0.145302106593     
-2.09293655868      
-0.145296427486     
-2.09297386628      
-0.145285071175     
-2.09290467732      
-0.14532455268      
-2.09292294895      
-0.145275601329     
-2.09290503361      
-0.145285536918     
-2.09297372432      
-0.145215045494     
-2.0929333638       
-0.145127398606     
-2.09303105147      
-0.145607932109     
-2.09227759153      
0.515491338288      
-0.693737165949     
0.515493616309      
-0.693590632694     
0.515495881647      
-0.693484138787     
0.515444456787      
-0.693579341565     
0.515524509196      
-0.693484275287     
0.515465511469      
-0.693596172165     
0.515486816913      
-0.69352218883      
0.515483773148      
-0.693470327042     
0.515482869781      
-0.693542624498     
0.515476378964      
-0.6935073104       
0.515473545209      
-0.69354605324      
0.515476261512      
-0.693563733822     
0.515477594609      
-0.693527217264     
0.515481959561      
-0.693602497623     
0.515457604137      
-0.693528141821     
0.515505014554      
-0.693514594855     
0.51548263984       
-0.693473712374     
0.515477672339      
-0.693541878263     
0.515462554702      
-0.693607587625     
0.515450774098      
-0.693555027188     
0.515508285879      
-0.693471581982     
0.515483128212      
-0.693565146746     
0.515477069254      
-0.693559333045     
0.51546917674       
-0.693543993901     
0.515500341149      
-0.693511511849     
0.515467391625      
-0.693500544251     
0.515505386314      
-0.693528876188     
0.515481010304      
-0.693522249738     
0.515492078179      
-0.693579710617     
0.515487992903      
-0.69354092606      
0.515448370657      
-0.693587419805     
0.515472523763      
-0.693524286093     
0.515488795436      
-0.693546137453     
0.515488170015      
-0.693540737398     
0.515497501135      
-0.693438641413     
0.515442229715      
-0.693590665007     
0.515487598068      
-0.693560210045     
0.515480852289      
-0.693495511062     
0.515477899929      
-0.693541987721     
0.515479991302      
-0.693536922479     
0.515479404293      
-0.693507255263     
0.515480865128      
-0.693551688483     
0.515491413844      
-0.693485547457     
0.515468456974      
-0.693507215831     
0.515480523101      
-0.693540898534     
0.515478989824      
-0.693522358321     
0.515487641279      
-0.69354660836      
0.515489455983      
-0.693525270006     
0.515559431271      
-0.693587819451     
0.515357540676      
-0.693207942339     
0.652605103525      
0.069879813726      
0.652604561151      
0.0699460212347     
0.652597405374      
0.0699573786081     
0.652601856848      
0.0699891837565     
0.652595209354      
0.0699288166203     
0.652606769742      
0.0699790919382     
0.652598218808      
0.0699950930758     
0.652603976553      
0.069941360536      
0.652599229184      
0.069979261759      
0.652597305811      
0.069963899555      
0.652600800089      
0.0699438217312     
0.652598535597      
0.0699674691849     
0.65260067989       
0.069994146906      
0.652601755634      
0.0699664910831     
0.652594218451      
0.0699575574667     
0.652601070861      
0.0699799454828     
0.652593014971      
0.0699165883913     
0.652592085489      
0.0699454142404     
0.652603361363      
0.0699677393028     
0.652603024452      
0.0700070286475     
0.652587608228      
0.0699049416053     
0.652599399006      
0.069996631994      
0.652597408927      
0.0699417954733     
0.652596366985      
0.0699548105663     
0.652605938833      
0.0700139014821     
0.652599090021      
0.0699284047175     
0.652600487838      
0.0699749271193     
0.652595318596      
0.0699519071082     
0.652602858911      
0.0699985340729     
0.652594659921      
0.0699232168939     
0.65260492536       
0.0700189365729     
0.652598717046      
0.0699099182277     
0.65260358633       
0.0699951347792     
0.652601459512      
0.0699202527327     
0.65259173117       
0.069988871954      
0.652605363636      
0.0699656628469     
0.652603171026      
0.0699571843815     
0.652597460584      
0.0699686249317     
0.65259927189       
0.0699669150499     
0.652601888662      
0.0699858572449     
0.652598111198      
0.0699536143938     
0.652604807218      
0.0699831885702     
0.652597291835      
0.0699699794693     
0.652602135122      
0.0699496666763     
0.65260308699       
0.0699616808963     
0.65259987159       
0.0699693589105     
0.652604245882      
0.0699501454898     
0.652602614137      
0.0699873363747     
0.652616137491      
0.069924203838      