# vtk DataFile Version 3.0
PyPan mesh file. Generated by PyPan, USU AeroLab (c) 2020.
ASCII
DATASET POLYDATA
POINTS 3162 float
-6.75               -6.0                0.0                 
-6.75               6.0                 0.0                 
-6.7456111908       -6.00176715851      0.0                 
-6.7456111908       6.00176715851       0.0                 
-6.74558925629      -6.001745224        -0.000276425736956  
-6.74558925629      -6.001745224        0.000276425736956   
-6.74558925629      6.001745224         -0.000276425736956  
-6.74558925629      6.001745224         0.000276425736956   
-6.74552488327      -6.00168037415      -0.000546044961084  
-6.74552488327      -6.00168037415      0.000546044961084   
-6.74552488327      6.00168037415       -0.000546044961084  
-6.74552488327      6.00168037415       0.000546044961084   
-6.74541854858      -6.0015745163       -0.000802218739409  
-6.74541854858      -6.0015745163       0.000802218739409   
-6.74541854858      6.0015745163        -0.000802218739409  
-6.74541854858      6.0015745163        0.000802218739409   
-6.74527359009      -6.0014295578       0.00103863922413    
-6.74527359009      6.0014295578        0.00103863922413    
-6.74527359009      -6.0014295578       -0.00103863922413   
-6.74527359009      6.0014295578        -0.00103863922413   
-6.74509382248      -6.00124931335      -0.00124948495068   
-6.74509382248      -6.00124931335      0.00124948495068    
-6.74509382248      6.00124931335       -0.00124948495068   
-6.74509382248      6.00124931335       0.00124948495068    
-6.74488258362      -6.00103855133      -0.00142956420314   
-6.74488258362      -6.00103855133      0.00142956420314    
-6.74488258362      6.00103855133       -0.00142956420314   
-6.74488258362      6.00103855133       0.00142956420314    
-6.74464654922      -6.0008020401       -0.00157444283832   
-6.74464654922      -6.0008020401       0.00157444283832    
-6.74464654922      6.0008020401        -0.00157444283832   
-6.74464654922      6.0008020401        0.00157444283832    
-6.74439001083      -6.00054597855      -0.00168055354152   
-6.74439001083      -6.00054597855      0.00168055354152    
-6.74439001083      6.00054597855       -0.00168055354152   
-6.74439001083      6.00054597855       0.00168055354152    
-6.74412059784      -6.00027656555      -0.00174528337084   
-6.74412059784      -6.00027656555      0.00174528337084    
-6.74412059784      6.00027656555       -0.00174528337084   
-6.74412059784      6.00027656555       0.00174528337084    
-6.74384403229      -6.0                -0.00176703860052   
-6.74384403229      -6.0                0.00176703860052    
-6.74384403229      6.0                 -0.00176703860052   
-6.74384403229      6.0                 0.00176703860052    
-6.73356580734      -5.98356580734      0.0                 
-6.73356580734      5.98356580734       0.0                 
-6.72939682007      -6.00386857986      0.0                 
-6.72939682007      6.00386857986       0.0                 
-6.72934913635      -6.00382089615      -0.000605203036685  
-6.72934913635      -6.00382089615      0.000605203036685   
-6.72934913635      6.00382089615       -0.000605203036685  
-6.72934913635      6.00382089615       0.000605203036685   
-6.72920751572      -6.00367927551      -0.00119550398085   
-6.72920751572      -6.00367927551      0.00119550398085    
-6.72920751572      6.00367927551       -0.00119550398085   
-6.72920751572      6.00367927551       0.00119550398085    
-6.72897529602      -6.00344705582      -0.00175636773929   
-6.72897529602      -6.00344705582      0.00175636773929    
-6.72897529602      6.00344705582       -0.00175636773929   
-6.72897529602      6.00344705582       0.00175636773929    
-6.72865819931      -6.00312995911      -0.00227398378775   
-6.72865819931      -6.00312995911      0.00227398378775    
-6.72865819931      6.00312995911       -0.00227398378775   
-6.72865819931      6.00312995911       0.00227398378775    
-6.72826385498      -6.00273561478      -0.00273560686037   
-6.72826385498      -6.00273561478      0.00273560686037    
-6.72826385498      6.00273561478       -0.00273560686037   
-6.72826385498      6.00273561478       0.00273560686037    
-6.72780227661      -6.00227403641      -0.00312987016514   
-6.72780227661      -6.00227403641      0.00312987016514    
-6.72780227661      6.00227403641       -0.00312987016514   
-6.72780227661      6.00227403641       0.00312987016514    
-6.72740983963      -5.98356580734      -0.00176703860052   
-6.72740983963      -5.98356580734      0.00176703860052    
-6.72740983963      5.98356580734       -0.00176703860052   
-6.72740983963      5.98356580734       0.00176703860052    
-6.72728443146      -6.00175619125      -0.00344706559554   
-6.72728443146      -6.00175619125      0.00344706559554    
-6.72728443146      6.00175619125       -0.00344706559554   
-6.72728443146      6.00175619125       0.00344706559554    
-6.72672367096      -6.00119543076      -0.00367938308045   
-6.72672367096      -6.00119543076      0.00367938308045    
-6.72672367096      6.00119543076       -0.00367938308045   
-6.72672367096      6.00119543076       0.00367938308045    
-6.72613334656      -6.00060510635      -0.00382110173814   
-6.72613334656      -6.00060510635      0.00382110173814    
-6.72613334656      6.00060510635       -0.00382110173814   
-6.72613334656      6.00060510635       0.00382110173814    
-6.7255282402       -6.0                -0.00386873213574   
-6.7255282402       -6.0                0.00386873213574    
-6.7255282402       6.0                 -0.00386873213574   
-6.7255282402       6.0                 0.00386873213574    
-6.70909404755      -5.98356580734      -0.00386873213574   
-6.70909404755      -5.98356580734      0.00386873213574    
-6.70909404755      5.98356580734       -0.00386873213574   
-6.70909404755      5.98356580734       0.00386873213574    
-6.7027182579       -6.00721502304      0.0                 
-6.7027182579       6.00721502304       0.0                 
-6.70262908936      -6.00712585449      -0.00112864933908   
-6.70262908936      -6.00712585449      0.00112864933908    
-6.70262908936      6.00712585449       -0.00112864933908   
-6.70262908936      6.00712585449       0.00112864933908    
-6.70236492157      -6.00686168671      -0.00222950754687   
-6.70236492157      -6.00686168671      0.00222950754687    
-6.70236492157      6.00686168671       -0.00222950754687   
-6.70236492157      6.00686168671       0.00222950754687    
-6.70193195343      -6.00642824173      -0.00327546801418   
-6.70193195343      -6.00642824173      0.00327546801418    
-6.70193195343      6.00642824173       -0.00327546801418   
-6.70193195343      6.00642824173       0.00327546801418    
-6.70134019852      -6.00583696365      -0.00424077548087   
-6.70134019852      -6.00583696365      0.00424077548087    
-6.70134019852      6.00583696365       -0.00424077548087   
-6.70134019852      6.00583696365       0.00424077548087    
-6.70060491562      -6.00510168076      -0.00510166119784   
-6.70060491562      -6.00510168076      0.00510166119784    
-6.70060491562      6.00510168076       -0.00510166119784   
-6.70060491562      6.00510168076       0.00510166119784    
-6.69974422455      -6.00424098969      -0.00583692686632   
-6.69974422455      -6.00424098969      0.00583692686632    
-6.69974422455      6.00424098969       -0.00583692686632   
-6.69974422455      6.00424098969       0.00583692686632    
-6.6987786293       -6.00327539444      -0.00642846804112   
-6.6987786293       -6.00327539444      0.00642846804112    
-6.6987786293       6.00327539444       -0.00642846804112   
-6.6987786293       6.00327539444       0.00642846804112    
-6.69773292542      -6.00222969055      -0.00686171883717   
-6.69773292542      -6.00222969055      0.00686171883717    
-6.69773292542      6.00222969055       -0.00686171883717   
-6.69773292542      6.00222969055       0.00686171883717    
-6.69663190842      -6.00112867355      -0.00712601142004   
-6.69663190842      -6.00112867355      0.00712601142004    
-6.69663190842      6.00112867355       -0.00712601142004   
-6.69663190842      6.00112867355       0.00712601142004    
-6.69550323486      -6.0                -0.00721483817324   
-6.69550323486      -6.0                0.00721483817324    
-6.69550323486      6.0                 -0.00721483817324   
-6.69550323486      6.0                 0.00721483817324    
-6.68444299698      -5.93444299698      0.0                 
-6.68444299698      5.93444299698       0.0                 
-6.67906904221      -5.98356580734      -0.00721483817324   
-6.67906904221      -5.98356580734      0.00721483817324    
-6.67906904221      5.98356580734       -0.00721483817324   
-6.67906904221      5.98356580734       0.00721483817324    
-6.67828702927      -5.93444299698      -0.00176703860052   
-6.67828702927      -5.93444299698      0.00176703860052    
-6.67828702927      5.93444299698       -0.00176703860052   
-6.67828702927      5.93444299698       0.00176703860052    
-6.66610383987      -6.01159524918      0.0                 
-6.66610383987      6.01159524918       0.0                 
-6.66596078873      -6.01145267487      -0.00181389949284   
-6.66596078873      -6.01145267487      0.00181389949284    
-6.66596078873      6.01145267487       -0.00181389949284   
-6.66596078873      6.01145267487       0.00181389949284    
-6.66553640366      -6.01102781296      -0.00358313485049   
-6.66553640366      -6.01102781296      0.00358313485049    
-6.66553640366      6.01102781296       -0.00358313485049   
-6.66553640366      6.01102781296       0.00358313485049    
-6.66483974457      -6.01033163071      -0.00526414159685   
-6.66483974457      -6.01033163071      0.00526414159685    
-6.66483974457      6.01033163071       -0.00526414159685   
[...]
CELL_DATA 3200
SCALARS panel_area float 1
LOOKUP_TABLE default
9.03230368216e-07   
8.13245286235e-06   
2.62033701368e-05   
6.06817547005e-05   
0.000113601668479   
0.000183670034006   
0.000266451596967   
0.000354912392836   
0.000440198279722   
0.000512462192885   
0.000562147622568   
0.000581431443459   
0.000565858288656   
0.000515631171988   
0.000436149380848   
0.000337496102987   
0.00023292287289    
0.000136753425301   
6.18729693789e-05   
1.53023596818e-05   
8.65576916266e-07   
7.98612404857e-06   
2.57552977354e-05   
5.96770729759e-05   
0.000111818293723   
0.000180956614171   
0.000262794155589   
0.00035050274801    
0.000435370333522   
0.000507748129534   
0.000558231583895   
0.000579032518351   
0.000565581920045   
0.000517737616402   
0.000440422661558   
0.000343208546115   
0.000238971617599   
0.000141884205964   
6.49286089339e-05   
1.58371146414e-05   
8.29292923058e-07   
7.84464728518e-06   
2.53048143696e-05   
5.86953508157e-05   
0.000110078145616   
0.000178313899941   
0.00025926283131    
0.000346215045595   
0.000430666028592   
0.000503161880072   
0.000554429895522   
0.000576721755005   
0.000565317755957   
0.000519759853979   
0.000444503151309   
0.0003485938069     
0.000244622741612   
0.000146641233389   
6.77456694975e-05   
1.6339335927e-05    
7.93767176481e-07   
7.71405826984e-06   
2.48946513371e-05   
5.77587643189e-05   
0.000108414106626   
0.000175806469404   
0.000255877465837   
0.000342135219721   
0.000426206739144   
0.000498826323132   
0.000550839875613   
0.000574537147552   
0.000565070483145   
0.000521638641235   
0.000448257229547   
0.000353581645207   
0.000249837056951   
0.000150972349394   
7.02746820005e-05   
1.67921876438e-05   
7.5943374285e-07    
7.5861708835e-06    
2.44957819963e-05   
5.68947278643e-05   
0.000106889344705   
0.000173481890872   
0.000252773048987   
0.000338375803174   
0.000422110693192   
0.000494849807782   
0.00054755781164    
0.000572561768274   
0.000564840046917   
0.000523335926118   
0.000451648672979   
0.000358031066415   
0.000254458894902   
0.000154808162079   
7.25046766864e-05   
1.71949367937e-05   
7.28737232102e-07   
7.47793827652e-06   
2.41540825601e-05   
5.61279580426e-05   
0.000105527349078   
0.000171438721936   
0.000250045032068   
0.000335073570764   
0.00041850558415    
0.000491361716255   
0.000544691052437   
0.000570819960393   
0.000564641160249   
0.000524822192121   
0.000454601650905   
0.00036190056868    
0.00025844189063    
0.000158074913222   
7.4392442316e-05    
1.75385451691e-05   
7.01746589526e-07   
7.38317178575e-06   
2.3859138849e-05    
5.54833086921e-05   
0.000104390128476   
0.000169714976432   
0.000247734121535   
0.000332298015089   
0.00041548468809    
0.000488433046822   
0.000542293043508   
0.000569386557497   
0.000564482254905   
0.000526042373731   
0.000457035462795   
0.000365069427584   
0.000261697406792   
0.00016074162408    
7.59270319508e-05   
1.78187025425e-05   
6.79804721633e-07   
7.30939008807e-06   
2.36352797233e-05   
5.49824878479e-05   
0.000103498561826   
0.000168377482732   
0.000245953428172   
0.00033014586867    
0.000413141057784   
0.000486165298877   
0.000540420745547   
0.00056824969136    
0.000564354064462   
0.000527003010577   
0.000458918281904   
0.000367507063759   
0.000264187264245   
0.000162768947578   
7.70913193162e-05   
1.80334998726e-05   
6.65122888792e-07   
7.26072248427e-06   
2.34781651942e-05   
5.46364189673e-05   
0.000102890453222   
0.000167454954661   
0.00024471598352    
0.000328663403657   
0.000411533601648   
0.000484606360454   
0.00053915105993    
0.000567490187707   
0.000564265965546   
0.000527644882818   
0.000460189412134   
0.000369152241377   
0.000265867490595   
0.000164137490615   
7.7874539935e-05    
1.81768399092e-05   
6.57392288779e-07   
7.23540970931e-06   
2.34000155062e-05   
5.44615165024e-05   
0.000102580449115   
0.000166989954117   
0.00024409564684    
0.000327911357404   
0.000410717718433   
0.000483822246907   
0.000538505004094   
0.000567098662825   
0.000564223681099   
0.000527972940146   
0.000460828378591   
0.000369979382685   
0.000266714955859   
0.0001648240763     
7.82683583874e-05   
1.82499871386e-05   
6.57392288779e-07   
7.23540971187e-06   
2.34000155078e-05   
5.44615165162e-05   
0.000102580449118   
0.000166989954118   
0.00024409564684    
0.000327911357408   
0.00041071771844    
0.00048382224691    
0.000538505004095   
0.000567098662837   
0.00056422368111    
0.000527972940146   
0.000460828378592   
0.00036997938269    
0.000266714955862   
0.0001648240763     
7.8268358389e-05    
1.82499871386e-05   
6.65122888792e-07   
7.26072248779e-06   
2.34781651944e-05   
5.46364189727e-05   
0.000102890453224   
0.000167454954662   
0.000244715983521   
0.000328663403672   
0.00041153360167    
0.000484606360455   
0.00053915105994    
0.00056749018771    
0.000564265965553   
0.000527644882827   
0.000460189412139   
0.000369152241388   
0.000265867490596   
0.000164137490619   
7.78745399419e-05   
1.81768399092e-05   
6.79804721633e-07   
7.30939009776e-06   
2.36352797341e-05   
5.49824878576e-05   
0.000103498561826   
0.000168377482741   
0.000245953428175   
0.000330145868702   
0.00041314105779    
0.000486165298879   
0.000540420745561   
0.000568249691365   
0.000564354064466   
0.000527003010577   
0.000458918281904   
0.000367507063761   
0.000264187264248   
0.000162768947583   
7.7091319323e-05    
1.80334998726e-05   
7.01746589526e-07   
7.38317179349e-06   
2.38591388491e-05   
5.54833087134e-05   
0.000104390128479   
0.000169714976432   
0.000247734121536   
0.000332298015099   
0.000415484688096   
0.000488433046842   
0.000542293043508   
0.0005693865575     
0.000564482254965   
0.000526042373734   
0.000457035462808   
0.000365069427585   
0.000261697406809   
0.000160741624107   
7.59270319958e-05   
1.78187025425e-05   
7.28737232102e-07   
7.47793827804e-06   
2.41540825622e-05   
5.6127958044e-05    
0.000105527349079   
0.00017143872194    
0.000250045032068   
0.000335073570786   
0.000418505584162   
0.000491361716257   
0.000544691052446   
0.000570819960395   
0.000564641160253   
0.000524822192121   
0.000454601650907   
0.000361900568717   
0.000258441890648   
0.000158074913242   
7.43924423249e-05   
1.75385451691e-05   
7.5943374285e-07    
7.58617088367e-06   
2.44957819975e-05   
5.68947278955e-05   
0.000106889344716   
0.000173481890877   
0.00025277304899    
0.000338375803175   
0.000422110693204   
0.000494849807803   
0.000547557811653   
0.000572561768274   
0.000564840046917   
0.000523335926118   
0.000451648672986   
0.000358031066417   
0.000254458894931   
0.000154808162082   
7.25046766867e-05   
1.71949367937e-05   
7.93767176481e-07   
7.71405827372e-06   
2.48946513385e-05   
5.77587643571e-05   
0.000108414106653   
0.000175806469413   
0.000255877465838   
0.000342135219731   
0.000426206739153   
0.000498826323138   
0.00055083987563    
0.000574537147561   
0.000565070483145   
0.000521638641235   
0.000448257229548   
0.000353581645234   
0.000249837056982   
0.000150972349396   
7.02746820311e-05   
1.67921876438e-05   
8.29292923058e-07   
7.84464728611e-06   
2.53048143697e-05   
5.86953508394e-05   
0.000110078145636   
0.000178313899945   
0.000259262831311   
0.000346215045595   
0.000430666028592   
0.000503161880072   
0.000554429895522   
0.000576721755006   
0.000565317755958   
0.000519759853988   
0.000444503151312   
0.000348593806981   
0.000244622741619   
0.000146641233389   
6.77456695691e-05   
1.6339335927e-05    
8.65576916266e-07   
7.98612405134e-06   
2.57552977356e-05   
5.96770729789e-05   
0.000111818293726   
0.000180956614171   
0.000262794155589   
0.00035050274801    
0.000435370333522   
0.000507748129534   
0.000558231583896   
0.000579032518351   
0.000565581920045   
0.000517737616402   
0.000440422661558   
0.000343208546118   
0.000238971617599   
0.000141884205964   
6.49286089908e-05   
1.58371146414e-05   
9.03230368216e-07   
8.13245286257e-06   
2.62033701368e-05   
6.06817547005e-05   
0.000113601668479   
0.000183670034006   
0.000266451596967   
0.000354912392836   
0.000440198279722   
0.000512462192885   
0.000562147622568   
0.000581431443459   
0.000565858288656   
0.000515631171988   
0.000436149380848   
0.000337496102987   
0.00023292287289    
0.000136753425301   
6.18729694134e-05   
1.53023596818e-05   
0.00010918636838    
0.000304942842153   
0.000499527497122   
0.000681362733039   
0.000845955504897   
0.000989275510195   
0.00110786889097    
0.00119885125928    
0.00126002822369    
0.00128993201587    
0.00128801858       
0.00125466686525    
0.00119127507808    
0.00110018125697    
0.000984564860452   
0.00084841926169    
0.000696791698717   
0.000537259771685   
0.000384956508363   
0.000280417600883   
0.000280417600901   
0.00038495650838    
0.000537259771685   
0.000696791698717   
0.00084841926169    
0.000984564860452   
0.00110018125697    
0.00119127507808    
0.00125466686525    
0.00128801858       
0.00128993201587    
0.00126002822369    
0.00119885125928    
0.00110786889097    
0.000989275510196   
0.000845955504897   
0.000681362733039   
0.000499527497122   
0.000304942842153   
0.00010918636838    
0.000326364755484   
0.000911492868502   
0.0014931183432     
0.00203664671263    
0.00252860144744    
0.00295701643613    
0.00331148736998    
0.00358343976503    
0.00376629012073    
0.00385568595418    
0.00384997815345    
0.00375026451313    
0.00356079431288    
0.00328850929147    
0.00294293650965    
0.00253596583669    
0.00208275314721    
0.00160590242737    
0.00115066454147    
0.000838175903463   
0.000838175903463   
0.00115066454147    
0.00160590242737    
0.00208275314721    
0.00253596583669    
0.00294293650965    
0.00328850929147    
0.00356079431288    
0.00375026451313    
0.00384997815345    
0.00385568595418    
0.00376629012074    
0.00358343976503    
0.00331148736998    
0.00295701643613    
0.00252860144744    
0.00203664671263    
0.0014931183432     
0.000911492868502   
0.000326364755484   
0.000539951531589   
0.00150808153485    
0.00247036022608    
0.00336962613783    
0.00418356387012    
0.00489235629593    
0.00547884657632    
0.00592881016997    
0.00623129712042    
0.00637924113853    
0.00636975897768    
0.00620482175822    
0.00589130510085    
0.00544082963021    
0.0048690995078     
0.00419574813825    
0.00344590940097    
0.0026569611857     
0.00190375510855    
0.00138676496728    
0.0013867649673     
0.00190375510857    
0.0026569611857     
0.00344590940097    
0.00419574813826    
0.0048690995078     
0.00544082963021    
0.00589130510085    
0.00620482175822    
0.00636975897768    
0.00637924113853    
0.00623129712042    
0.00592881016997    
0.00547884657632    
0.00489235629594    
0.00418356387012    
0.00336962613783    
0.00247036022608    
0.00150808153485    
0.000539951531596   
0.000747628632722   
0.00208812187775    
0.00342051326834    
0.00466562958464    
0.00579267817206    
0.00677403408282    
0.007586127743      
0.00820915686254    
0.00862801345589    
0.00883283300534    
0.00881967692415    
0.00859135489815    
0.00815719941329    
0.00753348836394    
0.00674185881917    
0.00580954874045    
0.00477127938795    
0.00367888492261    
0.00263596030447    
0.00192015637397    
0.00192015637397    
0.00263596030447    
0.00367888492261    
0.00477127938795    
0.00580954874045    
0.00674185881917    
0.00753348836394    
0.00815719941329    
0.00859135489815    
0.00881967692415    
0.00883283300534    
0.00862801345589    
0.00820915686254    
0.007586127743      
0.00677403408282    
0.00579267817206    
0.00466562958464    
0.00342051326834    
0.00208812187775    
0.00074762863273    
0.000947147789194   
0.00264525639108    
0.00433319993659    
0.00591054740452    
0.00733832343824    
0.00858156581062    
0.00961031474312    
0.0103995511953     
0.0109302375754     
0.0111896409338     
0.0111730423609     
0.0108837298513     
0.0103337977276     
0.00954362951319    
0.0085407377029     
0.00735969553656    
0.00604438747035    
0.00466051222807    
0.00333933440591    
0.00243249621757    
0.00243249621759    
0.00333933440592    
0.00466051222807    
0.00604438747035    
0.00735969553656    
0.0085407377029     
0.00954362951319    
0.0103337977276     
0.0108837298513     
0.0111730423609     
0.0111896409338     
0.0109302375754     
0.0103995511953     
0.00961031474312    
0.00858156581062    
0.00733832343824    
0.00591054740452    
0.00433319993659    
0.00264525639108    
0.000947147789194   
0.00113626687948    
0.00317344057518    
0.00519841953526    
0.00709071945476    
0.00880358268154    
0.0102951062638     
0.0115292272131     
0.0124760118947     
0.0131127022451     
0.0134239012448     
0.0134040290472     
0.0130568674588     
0.012397210711      
0.0114492270626     
0.0102460449801     
0.00882922219392    
0.00725128366204    
0.00559108699466    
0.00400610429292    
0.00291819421614    
0.00291819421616    
0.00400610429294    
0.00559108699466    
0.00725128366204    
0.00882922219392    
0.0102460449801     
0.0114492270626     
0.012397210711      
0.0130568674588     
0.0134040290472     
0.0134239012448     
0.0131127022451     
0.0124760118947     
0.0115292272131     
0.0102951062638     
0.00880358268154    
0.00709071945476    
0.00519841953526    
0.00317344057518    
0.00113626687948    
0.00131293558742    
0.00366685251586    
0.00600667865044    
0.00819319658143    
0.0101723786974     
0.0118958069042     
0.013321764201      
0.0144158501611     
0.0151514875033     
0.015511072253      
0.0154880632338     
0.015087018499      
0.0143247501279     
0.0132293723687     
0.0118391174887     
0.0102020046848     
0.00837872558488    
0.0064603987146     
0.00462894461799    
0.00337193906066    
0.00337193906066    
0.00462894461799    
0.0064603987146     
0.00837872558488    
0.0102020046848     
0.0118391174887     
0.0132293723687     
0.0143247501279     
0.015087018499      
0.0154880632338     
0.015511072253      
0.0151514875033     
0.0144158501611     
0.013321764201      
0.0118958069042     
0.0101723786974     
0.00819319658143    
0.00600667865044    
0.00366685251586    
0.00131293558742    
0.00147521824288    
0.00412008614677    
0.00674912159372    
0.00920589949743    
0.0114297142766     
0.01336616322       
0.0149683732438     
0.0161976913826     
0.0170242554058     
0.0174282858759     
0.0174024329545     
0.0169518178722     
0.0160953308873     
0.0148645612527     
0.0133024668279     
0.0114630021222     
0.00941436042506    
0.00725892277683    
0.00520113810947    
0.00378870320187    
0.00378870320189    
0.00520113810948    
0.00725892277683    
0.00941436042506    
0.0114630021222     
0.0133024668279     
0.0148645612527     
0.0160953308873     
0.0169518178722     
0.0174024329545     
0.0174282858759     
0.0170242554058     
0.0161976913826     
0.0149683732438     
0.01336616322       
0.0114297142766     
0.00920589949743    
0.00674912159372    
0.00412008614677    
0.00147521824288    
0.00162134074556    
0.00452818664442    
0.00741763185854    
0.0101177571704     
0.012561844023      
0.0146900432454     
0.0164510696431     
0.0178020959336     
0.0187105325504     
0.0191545828235     
0.0191261690543     
0.0186309199474     
0.0176895385312     
0.0163369175423     
0.0146201533073     
0.0125984290778     
0.0103468664547     
0.0079779295869     
0.0057163160915     
0.00416397602517    
0.00416397602519    
0.00571631609152    
0.0079779295869     
0.0103468664547     
0.0125984290778     
0.0146201533073     
0.0163369175423     
0.0176895385312     
0.0186309199474     
0.0191261690543     
0.0191545828235     
0.0187105325504     
0.0178020959336     
0.0164510696431     
0.0146900432454     
0.012561844023      
0.0101177571704     
0.00741763185854    
0.00452818664442    
0.00162134074556    
0.00174969690112    
0.00488666812397    
0.00800486110774    
0.0109187463621     
0.0135563234437     
0.0158529430287     
0.0177534463878     
0.0192114911831     
0.0201917831963     
0.020670987453      
0.0206402616375     
0.0201059306869     
0.019089960476      
0.0176302570276     
0.015777582353      
0.0135958048157     
0.0111659934666     
0.00860951574415    
0.0061688099029     
0.00449364872255    
0.00449364872255    
0.0061688099029     
0.00860951574415    
0.0111659934666     
0.0135958048157     
0.015777582353      
0.0176302570276     
0.019089960476      
0.0201059306869     
0.0206402616375     
0.020670987453      
0.0201917831963     
0.0192114911831     
0.0177534463878     
0.0158529430287     
0.0135563234437     
0.0109187463621     
0.00800486110774    
0.00488666812397    
0.00174969690112    
0.0018588832695     
0.00519161096612    
0.00850438860486    
0.0116001751638     
0.0144022130388     
0.0168422807693     
0.0188613152788     
0.0204103464455     
0.0214517451334     
0.0219609194689     
0.0219283428805     
0.0213605348073     
0.0202812983422     
0.018730438262      
0.0167621511154     
0.0144441583947     
0.0118627851653     
0.00914680645375    
0.00655376334749    
0.00477406773698    
0.00477406773698    
0.00655376334749    
0.00914680645376    
0.0118627851653     
0.0144441583947     
0.0167621511154     
0.018730438262      
0.0202812983422     
0.0213605348073     
0.0219283428805     
0.0219609194689     
0.0214517451334     
0.0204103464455     
0.0188613152788     
0.0168422807693     
0.0144022130388     
0.0116001751638     
0.00850438860486    
0.00519161096612    
0.0018588832695     
0.00194770550105    
0.00543967951292    
0.00891075020175    
0.012154461192      
0.0150903876287     
0.0176471174738     
0.0197625572577     
0.0213855355889     
0.0224767645959     
0.0230102687777     
0.0229762053114     
0.0223811263314     
0.0212503560794     
0.019625426845      
0.0175631593616     
0.015134302755      
0.0124296196019     
0.00958386380609    
0.0068669446912     
0.00500216964609    
0.00500216964609    
0.0068669446912     
0.00958386380609    
0.0124296196019     
0.015134302755      
0.0175631593616     
0.019625426845      
0.0212503560794     
0.0223811263314     
0.0229762053114     
0.0230102687777     
0.0224767645959     
0.0213855355889     
0.0197625572577     
0.0176471174738     
0.0150903876287     
0.012154461192      
0.00891075020175    
0.00543967951292    
0.00194770550105    
0.00201511925129    
0.00562821556988    
0.00921947466074    
0.0125754968115     
0.0156132853022     
0.018258452823      
0.0204472562824     
0.0221264650156     
0.0232555370554     
0.0238074890564     
0.0237722093132     
0.0231565852893     
0.0219866019253     
0.0203053749559     
0.0181716216304     
0.0156586858587     
0.0128602948425     
0.00991587677808    
0.00710485990259    
0.0051754641006     
0.0051754641006     
0.00710485990259    
0.00991587677808    
0.0128602948425     
0.0156586858587     
0.0181716216304     
0.0203053749559     
0.0219866019253     
0.0231565852893     
0.0237722093132     
0.0238074890564     
0.0232555370554     
0.0221264650156     
0.0204472562824     
0.018258452823      
0.0156132853022     
0.0125754968115     
0.00921947466074    
0.00562821556988    
0.00201511925129    
0.00206045340966    
0.00575509820191    
0.00942719907784    
0.0128588359406     
0.0159650323579     
0.0186698351068     
0.0209079181427     
0.0226250712331     
0.0237794721762     
0.0243439339817     
0.0243077487401     
0.023678364788      
0.0224820204828     
0.0207628766822     
0.0185810107333     
0.0160114925891     
0.0131500862487     
0.0101392908217     
0.00726490942207    
0.00529208527938    
0.00529208527939    
0.00726490942207    
0.0101392908217     
0.0131500862487     
0.0160114925891     
0.0185810107333     
0.0207628766822     
0.0224820204828     
0.023678364788      