# vtk DataFile Version 3.0
PyPan mesh file. Generated by PyPan, USU AeroLab (c) 2020.
ASCII
DATASET POLYDATA
POINTS 492 float
-0.75               0.0                 0.0                 
-0.823415219784     -0.0978869646788    -0.00464247865602   
-0.84788697958      -0.0978869646788    0.0                 
-0.725528240204     0.0                 -0.00464247865602   
-0.752395451069     -0.0978869646788    -0.0139143215492    
-0.654508471489     0.0                 -0.0139143215492    
-0.641779601574     -0.0978869646788    -0.0269051659852    
-0.543892621994     0.0                 -0.0269051659852    
-0.502395451069     -0.0978869646788    -0.0409174077213    
-0.404508501291     0.0                 -0.0409174077213    
-0.34788697958      -0.0978869646788    -0.0529402531683    
-0.25               0.0                 -0.0529402531683    
-0.193378463387     -0.0978869646788    -0.0595747157931    
-0.0954915061593    0.0                 -0.0595747157931    
-0.0539943426847    -0.0978869646788    -0.0577141307294    
0.0438926257193     0.0                 -0.0577141307294    
0.0566215291619     -0.0978869646788    -0.0460489317775    
0.154508501291      0.0                 -0.0460489317775    
0.127641290426      -0.0978869646788    -0.0258933138102    
0.225528255105      0.0                 -0.0258933138102    
0.152113035321      -0.0978869646788    0.0                 
0.25                0.0                 0.0                 
0.127641290426      -0.0978869646788    0.0258933138102     
0.225528255105      0.0                 0.0258933138102     
0.0566215291619     -0.0978869646788    0.0460489317775     
0.154508501291      0.0                 0.0460489317775     
-0.0539943426847    -0.0978869646788    0.0577141307294     
0.0438926257193     0.0                 0.0577141307294     
-0.193378463387     -0.0978869646788    0.0595747157931     
-0.0954915061593    0.0                 0.0595747157931     
-0.34788697958      -0.0978869646788    0.0529402531683     
-0.25               0.0                 0.0529402531683     
-0.502395451069     -0.0978869646788    0.0409174077213     
-0.404508501291     0.0                 0.0409174077213     
-0.641779601574     -0.0978869646788    0.0269051659852     
-0.543892621994     0.0                 0.0269051659852     
-0.752395451069     -0.0978869646788    0.0139143215492     
-0.654508471489     0.0                 0.0139143215492     
-0.823415219784     -0.0978869646788    0.00464247865602    
-0.725528240204     0.0                 0.00464247865602    
-1.10749423504      -0.381966024637     -0.00464247865602   
-1.13196599483      -0.381966024637     0.0                 
-1.03647446632      -0.381966024637     -0.0139143215492    
-0.925858616829     -0.381966024637     -0.0269051659852    
-0.786474525928     -0.381966024637     -0.0409174077213    
-0.631965994835     -0.381966024637     -0.0529402531683    
-0.477457523346     -0.381966024637     -0.0595747157931    
-0.338073372841     -0.381966024637     -0.0577141307294    
-0.227457508445     -0.381966024637     -0.0460489317775    
-0.156437754631     -0.381966024637     -0.0258933138102    
-0.131966009736     -0.381966024637     0.0                 
-0.156437754631     -0.381966024637     0.0258933138102     
-0.227457508445     -0.381966024637     0.0460489317775     
-0.338073372841     -0.381966024637     0.0577141307294     
-0.477457523346     -0.381966024637     0.0595747157931     
-0.631965994835     -0.381966024637     0.0529402531683     
-0.786474525928     -0.381966024637     0.0409174077213     
-0.925858616829     -0.381966024637     0.0269051659852     
-1.03647446632      -0.381966024637     0.0139143215492     
-1.10749423504      -0.381966024637     0.00464247865602    
-1.54995775223      -0.824429512024     -0.00464247865602   
-1.57442951202      -0.824429512024     0.0                 
-1.47893798351      -0.824429512024     -0.0139143215492    
-1.36832213402      -0.824429512024     -0.0269051659852    
-1.22893798351      -0.824429512024     -0.0409174077213    
-1.07442951202      -0.824429512024     -0.0529402531683    
-0.91992098093      -0.824429512024     -0.0595747157931    
-0.78053689003      -0.824429512024     -0.0577141307294    
-0.66992098093      -0.824429512024     -0.0460489317775    
-0.598901212215     -0.824429512024     -0.0258933138102    
-0.574429512024     -0.824429512024     0.0                 
-0.598901212215     -0.824429512024     0.0258933138102     
-0.66992098093      -0.824429512024     0.0460489317775     
-0.78053689003      -0.824429512024     0.0577141307294     
-0.91992098093      -0.824429512024     0.0595747157931     
-1.07442951202      -0.824429512024     0.0529402531683     
-1.22893798351      -0.824429512024     0.0409174077213     
-1.36832213402      -0.824429512024     0.0269051659852     
-1.47893798351      -0.824429512024     0.0139143215492     
-1.54995775223      -0.824429512024     0.00464247865602    
-2.10749435425      -1.38196599483      -0.00464247865602   
-2.13196611404      -1.38196599483      0.0                 
-2.03647446632      -1.38196599483      -0.0139143215492    
-1.92585861683      -1.38196599483      -0.0269051659852    
-1.78647446632      -1.38196599483      -0.0409174077213    
-1.63196599483      -1.38196599483      -0.0529402531683    
-1.47745752335      -1.38196599483      -0.0595747157931    
-1.33807337284      -1.38196599483      -0.0577141307294    
-1.22745752335      -1.38196599483      -0.0460489317775    
-1.15643775463      -1.38196599483      -0.0258933138102    
-1.13196599483      -1.38196599483      0.0                 
-1.15643775463      -1.38196599483      0.0258933138102     
-1.22745752335      -1.38196599483      0.0460489317775     
-1.33807337284      -1.38196599483      0.0577141307294     
-1.47745752335      -1.38196599483      0.0595747157931     
-1.63196599483      -1.38196599483      0.0529402531683     
-1.78647446632      -1.38196599483      0.0409174077213     
-1.92585861683      -1.38196599483      0.0269051659852     
-2.03647446632      -1.38196599483      0.0139143215492     
-2.10749435425      -1.38196599483      0.00464247865602    
-2.7255282402       -2.0                -0.00464247865602   
-2.75               -2.0                0.0                 
-2.6545085907       -2.0                -0.0139143215492    
-2.54389262199      -2.0                -0.0269051659852    
-2.4045085907       -2.0                -0.0409174077213    
-2.25               -2.0                -0.0529402531683    
-2.0954914093       -2.0                -0.0595747157931    
-1.95610737801      -2.0                -0.0577141307294    
-1.84549152851      -2.0                -0.0460489317775    
-1.7744717598       -2.0                -0.0258933138102    
-1.75               -2.0                0.0                 
-1.7744717598       -2.0                0.0258933138102     
-1.84549152851      -2.0                0.0460489317775     
-1.95610737801      -2.0                0.0577141307294     
-2.0954914093       -2.0                0.0595747157931     
-2.25               -2.0                0.0529402531683     
-2.4045085907       -2.0                0.0409174077213     
-2.54389262199      -2.0                0.0269051659852     
-2.6545085907       -2.0                0.0139143215492     
-2.7255282402       -2.0                0.00464247865602    
-3.34356236458      -2.61803388596      -0.00464247865602   
-3.36803388596      -2.61803388596      0.0                 
-3.27254247665      -2.61803388596      -0.0139143215492    
-3.16192650795      -2.61803388596      -0.0269051659852    
-3.02254247665      -2.61803388596      -0.0409174077213    
-2.86803388596      -2.61803388596      -0.0529402531683    
-2.71352553368      -2.61803388596      -0.0595747157931    
-2.57414126396      -2.61803388596      -0.0577141307294    
-2.46352553368      -2.61803388596      -0.0460489317775    
-2.39250564575      -2.61803388596      -0.0258933138102    
-2.36803388596      -2.61803388596      0.0                 
-2.39250564575      -2.61803388596      0.0258933138102     
-2.46352553368      -2.61803388596      0.0460489317775     
-2.57414126396      -2.61803388596      0.0577141307294     
-2.71352553368      -2.61803388596      0.0595747157931     
-2.86803388596      -2.61803388596      0.0529402531683     
-3.02254247665      -2.61803388596      0.0409174077213     
-3.16192650795      -2.61803388596      0.0269051659852     
-3.27254247665      -2.61803388596      0.0139143215492     
-3.34356236458      -2.61803388596      0.00464247865602    
-3.90109872818      -3.17557048798      -0.00464247865602   
-3.92557048798      -3.17557048798      0.0                 
-3.83007907867      -3.17557048798      -0.0139143215492    
-3.71946310997      -3.17557048798      -0.0269051659852    
-3.58007907867      -3.17557048798      -0.0409174077213    
-3.42557048798      -3.17557048798      -0.0529402531683    
-3.27106189728      -3.17557048798      -0.0595747157931    
-3.13167786598      -3.17557048798      -0.0577141307294    
-3.02106189728      -3.17557048798      -0.0460489317775    
-2.95004224777      -3.17557048798      -0.0258933138102    
-2.92557048798      -3.17557048798      0.0                 
-2.95004224777      -3.17557048798      0.0258933138102     
-3.02106189728      -3.17557048798      0.0460489317775     
-3.13167786598      -3.17557048798      0.0577141307294     
-3.27106189728      -3.17557048798      0.0595747157931     
-3.42557048798      -3.17557048798      0.0529402531683     
-3.58007907867      -3.17557048798      0.0409174077213     
-3.71946310997      -3.17557048798      0.0269051659852     
-3.83007907867      -3.17557048798      0.0139143215492     
-3.90109872818      -3.17557048798      0.00464247865602    
-4.34356212616      -3.61803388596      -0.00464247865602   
[...]
CELL_DATA 980
SCALARS panel_area float 1
LOOKUP_TABLE default
0.00124008943566    
0.00124008943566    
0.00353470288178    
0.00353470288178    
0.00548808809528    
0.00548808809528    
0.00689054500846    
0.00689054354357    
0.00760783369951    
0.00760783515885    
0.00757611494977    
0.00757611385342    
0.0068231599812     
0.00682316052814    
0.00547380384549    
0.00547380403234    
0.00374547310792    
0.00374547272032    
0.00215562232473    
0.00215562232473    
0.00215562226163    
0.00215562226163    
0.00374547311754    
0.0037454728283     
0.00547380385201    
0.00547380402582    
0.00682315998142    
0.00682316052792    
0.00757611494054    
0.00757611386023    
0.00760783372651    
0.00760783513185    
0.00689054496724    
0.00689054359501    
0.00548808809528    
0.00548808809528    
0.00353470284797    
0.00353470284797    
0.00124008943566    
0.00124008943566    
0.00359887996034    
0.00359887996034    
0.0102581080173     
0.0102581080173     
0.0159270531984     
0.0159270531984     
0.0199971338089     
0.0199971421138     
0.0220788035639     
0.0220787951971     
0.021986737446      
0.0219867437728     
0.0198015862312     
0.0198015820007     
0.0158855987985     
0.0158855997634     
0.0108697865715     
0.0108697875734     
0.00625585947255    
0.00625585947255    
0.00625585947255    
0.00625585947255    
0.0108697861606     
0.010869787123      
0.015885598766      
0.0158855997218     
0.019801586231      
0.0198015820023     
0.0219867374699     
0.0219867437629     
0.0220788035362     
0.0220787952757     
0.0199971338801     
0.0199971420425     
0.0159270531709     
0.0159270531709     
0.0102581079584     
0.0102581079584     
0.00359887996034    
0.00359887996034    
0.00560538653445    
0.00560538653445    
0.015977377395      
0.015977377395      
0.0248069658798     
0.0248069658798     
0.0311462775649     
0.0311462645837     
0.0343885280431     
0.0343885411187     
0.03424515994       
0.0342451447483     
0.0308416789217     
0.0308416921042     
0.0247424071965     
0.0247423990001     
0.0169300915135     
0.0169300884146     
0.00974372429712    
0.00974372996377    
0.00974372397324    
0.00974372928207    
0.0169300916006     
0.0169300885808     
0.0247424071309     
0.0247423990658     
0.0308416789232     
0.0308416921027     
0.034245159926      
0.0342451447622     
0.0343885280906     
0.0343885410712     
0.0311462774541     
0.0311462646714     
0.0248069658798     
0.0248069658798     
0.0159773770893     
0.0159773770893     
0.00560538672071    
0.00560538672071    
0.0070631987312     
0.0070631987312     
0.0201327014389     
0.0201326684328     
0.0312585985857     
0.0312585985857     
0.0392465966207     
0.0392465966207     
0.0433320705681     
0.0433320705681     
0.043151396936      
0.0431514134816     
0.0388627966606     
0.0388627800518     
0.0311772336344     
0.0311772498625     
0.0213331579608     
0.0213331579608     
0.0122778169878     
0.0122778072023     
0.012277817371      
0.0122778080862     
0.0213331579608     
0.0213331579608     
0.0311772334284     
0.0311772494386     
0.038862796656      
0.0388627800501     
0.0431513969238     
0.0431514134387     
0.0433320704683     
0.0433320704683     
0.0392465965043     
0.0392465965043     
0.031258598208      
0.031258598208      
0.020132701291      
0.0201326685808     
0.0070631985802     
0.0070631985802     
0.00782961671739    
0.00782961671739    
0.0223172002106     
0.0223172730714     
0.0346504616634     
0.0346504263704     
0.043505155591      
0.0435051913063     
0.0480340105986     
0.0480339743694     
0.0478337327359     
0.047833696033      
0.043079708825      
0.0430797456485     
0.0345602326254     
0.0345602326254     
0.0236479913017     
0.0236479913017     
0.0136100660113     
0.0136100660113     
0.0136100660113     
0.0136100660113     
0.0236479911248     
0.0236479911248     
0.0345602326254     
0.0345602326254     
0.0430797088281     
0.0430797456459     
0.047833732696      
0.0478336960729     
0.0480340104878     
0.0480339744802     
0.0435051531391     
0.0435051911587     
0.0346504615139     
0.0346504265199     
0.0223172004806     
0.0223172728015     
0.00782961671739    
0.00782961671739    
0.00782954435869    
0.00782961540203    
0.0223172692647     
0.0223171976266     
0.0346504550098     
0.0346504550098     
0.043505147006      
0.043505147006      
0.0480340012781     
0.0480340012781     
0.0478336502445     
0.0478337235892     
0.043079774163      
0.0430797005208     
0.034560190384      
0.034560225978      
0.0236480205362     
0.0236479859978     
0.0136100642876     
0.0136100642876     
0.0136100642876     
0.0136100642876     
0.0236480198485     
0.0236479866855     
0.0345601905102     
0.0345602258518     
0.0430797741573     
0.043079700527      
0.0478336502632     
0.0478337234637     
0.048034001112      
0.048034001112      
0.043505147006      
0.043505147006      
0.0346504550098     
0.0346504550098     
0.0223172684824     
0.0223171961615     
0.00782954407349    
0.00782961519374    
0.00706320007829    
0.00706313603543    
0.0201326395834     
0.0201327052105     
0.0312586387567     
0.0312586387567     
0.0392465725769     
0.0392465725769     
0.0433321123162     
0.0433321123162     
0.0431514391815     
0.0431513730405     
0.0388627717468     
0.0388628381768     
0.0311772740861     
0.0311772078203     
0.0213331325494     
0.0213331937463     
0.0122778197127     
0.0122778197127     
0.0122778191829     
0.0122778191829     
0.0213331323371     
0.0213331939586     
0.031177273941      
0.031177208256      
0.0388627717522     
0.0388628381719     
0.0431514391131     
0.0431513731157     
0.0433321125159     
0.0433321125159     
0.0392465726933     
0.0392465726933     
0.0312586389186     
0.0312586389186     
0.0201326398794     
0.0201327049145     
0.00706319986117    
0.00706313623326    
0.00560538529729    
0.00560538529729    
0.0159773478279     
0.0159773478279     
0.0248069354278     
0.024806986441      
0.0311462971345     
0.0311462456483     
0.0343885470652     
0.0343885470652     
0.0342451116232     
0.0342451661902     
0.0308417122357     
0.0308416595117     
0.0247423637252     
0.0247424150584     
0.0169301133917     
0.0169300644355     
0.00974372935298    
0.00974372935298    
0.00974372935298    
0.00974372935298    
0.016930113031      
0.0169300646634     
0.0247423640241     
0.0247424162758     
0.0308417122296     
0.0308416595177     
0.0342451116899     
0.0342451661234     
0.0343885470652     
0.0343885470652     
0.0311462968065     
0.0311462440921     
0.0248069357999     
0.0248069860903     
0.0159773478279     
0.0159773478279     
0.00560538529729    
0.00560538529729    
0.00359888019761    
0.00359888019761    
0.0102580919184     
0.0102580919184     
0.0159270369223     
0.0159270369223     
0.0199971595899     
0.0199971595899     
0.0220788130542     
0.0220788130542     
0.0219867217781     
0.0219867217781     
0.0198016041943     
0.0198016041943     
0.0158855792696     
0.0158855792696     
0.01086980455       
0.01086980455       
0.00625586144433    
0.00625586144433    
0.00625586144433    
0.00625586144433    
0.01086980455       
0.01086980455       
0.0158855792696     
0.0158855792696     
0.0198016041934     
0.0198016041934     
0.0219867217711     
0.0219867217711     
0.0220788130287     
0.0220788130287     
0.0199971607403     
0.0199971607403     
0.0159270369223     
0.0159270369223     
0.0102580919184     
0.0102580919184     
0.00359888019761    
0.00359888019761    
0.00124009036982    
0.00124009036982    
0.00353469978764    
0.00353469978764    
0.00548808665245    
0.00548808665245    
0.00689055630317    
0.00689055630317    
0.00760784524397    
0.00760784524397    
0.00757612433708    
0.00757611266285    
0.00682316079516    
0.00682317246407    
0.00547381261318    
0.00547380103308    
0.00374547043567    
0.00374548172701    
0.00215562421132    
0.00215562421132    
0.00215562421132    
0.00215562421132    
0.00374547091735    
0.00374548118654    
0.00547381265471    
0.00547380132701    
0.00682316080118    
0.00682317245814    
0.00757612426931    
0.00757611273304    
0.0076078452352     
0.0076078452352     
0.00689055629295    
0.00689055629295    
0.00548808665245    
0.00548808665245    
0.00353469978764    
0.00353469978764    
0.00124009036982    
0.00124009036982    
3.56760230451e-05   
0.000102672869842   
0.000307715090178   
0.000478582983789   
0.000925386801866   
0.00116413661101    
0.00177044009861    
0.00195898073167    
0.00253458163761    
0.00252977610952    
0.00284680300822    
0.00256620273494    
0.00248607273693    
0.00198270039242    
0.00158194221458    
0.00104676204562    
0.000588597125112   
0.000277791111124   
3.56713361391e-05   
0.000102659506087   
0.000307708191023   
0.000478572524957   
0.000925405915214   
0.00116416048678    
0.00177042980701    
0.00195896940638    
0.00253459137825    
0.00252978585771    
0.00284680992205    
0.00256620882256    
0.0024860527232     
0.00198268414481    
0.00158195672785    
0.00104677215073    
0.000588592950765   
0.000277788761717   
3.56740856414e-05   
0.000102667516233   
0.000307712485308   
0.00047857903488    
0.000925395270952   
0.00116414654797    
0.00177043562487    
0.00195897625185    
0.00253458610844    
0.00252978028959    
0.0028468121304     
0.00256621108779    
0.0024860653927     
0.00198269395962    
0.00158195131695    
0.0010467690961     
0.000588598204962   
0.000277790151068   
3.56713361391e-05   
0.000102659366793   
0.000307708344355   
0.000478572256596   
0.000925406194606   
0.0011641608827     
0.00177042943027    
0.00195896892548    
0.00253459161628    
0.00252978606391    
0.00284680961708    
0.00256620884746    
0.00248605270197    
0.00198268468415    
0.00158195620253    
0.00104677120522    
0.000588593845208   
0.000277788761717   
3.56760230451e-05   
0.000102672887934   
0.000307715061248   
0.000478583010643   
0.000925386754402   
0.00116413646705    
0.00177044024231    
0.00195898081635    
0.00253458157501    
0.00252977613134    
0.00284680298673    
0.00256620276868    
0.00248607270313    
0.00198270022234    
0.0015819422875     
0.00104676215334    
0.000588597053912   
0.000277791111124   
0.00124008943566    
0.00124008943566    
0.00353470288178    
0.00353470288178    
0.00548808809528    
0.00548808809528    
0.00689054500846    
0.00689054354357    
0.00760783369951    
0.00760783515885    
0.00757611494977    
0.00757611385342    
0.0068231599812     
0.00682316052814    
0.00547380384549    
0.00547380403234    
0.00374547310792    
0.00374547272032    
0.00215562232473    
0.00215562232473    
0.00215562226163    
0.00215562226163    
0.00374547311754    
0.0037454728283     
0.00547380385201    
0.00547380402582    
0.00682315998142    
0.00682316052792    
0.00757611494054    
0.00757611386023    
0.00760783372651    
0.00760783513185    
0.00689054496724    
0.00689054359501    
0.00548808809528    
0.00548808809528    
0.00353470284797    
0.00353470284797    
0.00124008943566    
0.00124008943566    
0.00359887996034    
0.00359887996034    
0.0102581080173     
0.0102581080173     
0.0159270531984     
0.0159270531984     
0.0199971338089     
0.0199971421138     
0.0220788035639     
0.0220787951971     
0.021986737446      
0.0219867437728     
0.0198015862312     
0.0198015820007     
0.0158855987985     
0.0158855997634     
0.0108697865715     
0.0108697875734     
0.00625585947255    
0.00625585947255    
0.00625585947255    
0.00625585947255    
0.0108697861606     
0.010869787123      
0.015885598766      
0.0158855997218     
0.019801586231      
0.0198015820023     
0.0219867374699     
0.0219867437629     
0.0220788035362     
0.0220787952757     
0.0199971338801     
0.0199971420425     
0.0159270531709     
0.0159270531709     
0.0102581079584     
0.0102581079584     
0.00359887996034    
0.00359887996034    
0.00560538653445    
0.00560538653445    
0.015977377395      
0.015977377395      
0.0248069658798     
0.0248069658798     
0.0311462775649     
0.0311462645837     
0.0343885280431     
0.0343885411187     
0.03424515994       
0.0342451447483     
0.0308416789217     
0.0308416921042     
0.0247424071965     
0.0247423990001     
0.0169300915135     
0.0169300884146     
0.00974372429712    
0.00974372996377    
0.00974372397324    
0.00974372928207    
0.0169300916006     
0.0169300885808     
0.0247424071309     
0.0247423990658     
0.0308416789232     
0.0308416921027     
0.034245159926      
0.0342451447622     
0.0343885280906     
0.0343885410712     
0.0311462774541     
0.0311462646714     
0.0248069658798     
0.0248069658798     
0.0159773770893     
0.0159773770893     
0.00560538672071    
0.00560538672071    
0.0070631987312     
0.0070631987312     
0.0201327014389     
0.0201326684328     
0.0312585985857     
0.0312585985857     
0.0392465966207     
0.0392465966207     
0.0433320705681     
0.0433320705681     
0.043151396936      
0.0431514134816     
0.0388627966606     
0.0388627800518     
0.0311772336344     
0.0311772498625     
0.0213331579608     
0.0213331579608     
0.0122778169878     
0.0122778072023     
0.012277817371      
0.0122778080862     
0.0213331579608     
0.0213331579608     
0.0311772334284     
0.0311772494386     
0.038862796656      
0.0388627800501     
0.0431513969238     
0.0431514134387     
0.0433320704683     
0.0433320704683     
0.0392465965043     
0.0392465965043     
0.031258598208      
0.031258598208      
0.020132701291      
0.0201326685808     
0.0070631985802     
0.0070631985802     
0.00782961671739    
0.00782961671739    
0.0223172002106     
0.0223172730714     
0.0346504616634     
0.0346504263704     
0.043505155591      
0.0435051913063     
0.0480340105986     
0.0480339743694     
0.0478337327359     
0.047833696033      
0.043079708825      
0.0430797456485     
0.0345602326254     
0.0345602326254     
0.0236479913017     
0.0236479913017     
0.0136100660113     
0.0136100660113     
0.0136100660113     
0.0136100660113     
0.0236479911248     
0.0236479911248     
0.0345602326254     
0.0345602326254     
0.0430797088281     
0.0430797456459     
0.047833732696      
0.0478336960729     
0.0480340104878     
0.0480339744802     
0.0435051531391     
0.0435051911587     
0.0346504615139     
0.0346504265199     
0.0223172004806     
0.0223172728015     
0.00782961671739    
0.00782961671739    
0.00782954435869    
0.00782961540203    
0.0223172692647     
0.0223171976266     
0.0346504550098     
0.0346504550098     
0.043505147006      
0.043505147006      
0.0480340012781     
0.0480340012781     
0.0478336502445     
0.0478337235892     
0.043079774163      
0.0430797005208     
0.034560190384      
0.034560225978      
0.0236480205362     
0.0236479859978     
0.0136100642876     
0.0136100642876     
0.0136100642876     
0.0136100642876     
0.0236480198485     
0.0236479866855     
0.0345601905102     
0.0345602258518     
0.0430797741573     
0.043079700527      
0.0478336502632     
0.0478337234637     
0.048034001112      
0.048034001112      
0.043505147006      
0.043505147006      
0.0346504550098     
0.0346504550098     
0.0223172684824     
0.0223171961615     
0.00782954407349    
0.00782961519374    
0.00706320007829    
0.00706313603543    
0.0201326395834     
0.0201327052105     
0.0312586387567     
0.0312586387567     
0.0392465725769     
0.0392465725769     
0.0433321123162     
0.0433321123162     
0.0431514391815     
0.0431513730405     
0.0388627717468     
0.0388628381768     
0.0311772740861     
0.0311772078203     
0.0213331325494     
0.0213331937463     
0.0122778197127     
0.0122778197127     
0.0122778191829     
0.0122778191829     
0.0213331323371     
0.0213331939586     
0.031177273941      
0.031177208256      
0.0388627717522     
0.0388628381719     
0.0431514391131     
0.0431513731157     
0.0433321125159     
0.0433321125159     
0.0392465726933     
0.0392465726933     
0.0312586389186     
0.0312586389186     
0.0201326398794     
0.0201327049145     
0.00706319986117    
0.00706313623326    
0.00560538529729    
0.00560538529729    
0.0159773478279     
0.0159773478279     
0.0248069354278     
0.024806986441      
0.0311462971345     
0.0311462456483     
0.0343885470652     
0.0343885470652     
0.0342451116232     
0.0342451661902     
0.0308417122357     
0.0308416595117     
0.0247423637252     
0.0247424150584     
0.0169301133917     
0.0169300644355     
0.00974372935298    
0.00974372935298    
0.00974372935298    
0.00974372935298    
0.016930113031      
0.0169300646634     
0.0247423640241     
0.0247424162758     
0.0308417122296     
0.0308416595177     
0.0342451116899     
0.0342451661234     
0.0343885470652     
0.0343885470652     
0.0311462968065     
0.0311462440921     
0.0248069357999     
0.0248069860903     
0.0159773478279     
0.0159773478279     
0.00560538529729    
0.00560538529729    
0.00359888019761    
0.00359888019761    
0.0102580919184     
0.0102580919184     
0.0159270369223     
0.0159270369223     
0.0199971595899     
0.0199971595899     
0.0220788130542     
0.0220788130542     
0.0219867217781     
0.0219867217781     
0.0198016041943     
0.0198016041943     
0.0158855792696     
0.0158855792696     
0.01086980455       
0.01086980455       
0.00625586144433    
0.00625586144433    
0.00625586144433    
0.00625586144433    
0.01086980455       
0.01086980455       
0.0158855792696     
0.0158855792696     
0.0198016041934     
0.0198016041934     
0.0219867217711     
0.0219867217711     
0.0220788130287     
0.0220788130287     
0.0199971607403     
0.0199971607403     
0.0159270369223     
0.0159270369223     
0.0102580919184     
0.0102580919184     
0.00359888019761    
0.00359888019761    
0.00124009036982    
0.00124009036982    
0.00353469978764    
0.00353469978764    
0.00548808665245    
0.00548808665245    
0.00689055630317    
0.00689055630317    
0.00760784524397    
0.00760784524397    
0.00757612433708    
0.00757611266285    
0.00682316079516    
0.00682317246407    
0.00547381261318    
0.00547380103308    
0.00374547043567    
0.00374548172701    
0.00215562421132    
0.00215562421132    
0.00215562421132    
0.00215562421132    
0.00374547091735    
0.00374548118654    
0.00547381265471    
0.00547380132701    
0.00682316080118    
0.00682317245814    
0.00757612426931    
0.00757611273304    
0.0076078452352     
0.0076078452352     
0.00689055629295    
0.00689055629295    
0.00548808665245    
0.00548808665245    
0.00353469978764    
0.00353469978764    
0.00124009036982    
0.00124009036982    
3.56760230451e-05   
0.000102672869842   
0.000307715090178   
0.000478582983789   
0.000925386801866   
0.00116413661101    
0.00177044009861    
0.00195898073167    
0.00253458163761    
0.00252977610952    
0.00284680300822    
0.00256620273494    
0.00248607273693    
0.00198270039242    
0.00158194221458    
0.00104676204562    
0.000588597125112   
0.000277791111124   
3.56713361391e-05   
0.000102659506087   
0.000307708191023   
0.000478572524957   
0.000925405915214   
0.00116416048678    
0.00177042980701    
0.00195896940638    
0.00253459137825    
0.00252978585771    
0.00284680992205    
0.00256620882256    
0.0024860527232     
0.00198268414481    
0.00158195672785    
0.00104677215073    
0.000588592950765   
0.000277788761717   
3.56740856414e-05   
0.000102667516233   
0.000307712485308   
0.00047857903488    
0.000925395270952   
0.00116414654797    
0.00177043562487    
0.00195897625185    
0.00253458610844    
0.00252978028959    
0.0028468121304     
0.00256621108779    
0.0024860653927     
0.00198269395962    
0.00158195131695    
0.0010467690961     
0.000588598204962   
0.000277790151068   
3.56713361391e-05   
0.000102659366793   
0.000307708344355   
0.000478572256596   
0.000925406194606   