# vtk DataFile Version 3.0
PyPan results file. Generated by PyPan, USU AeroLab (c) 2020.
ASCII
DATASET POLYDATA
POINTS 1202 float
-60.5346183777      -12.7989702225      -2.47207999229      
-60.5346183777      -12.7989702225      2.47205805779       
-60.5346183777      -7.86458778381      -2.47207999229      
-60.5346183777      -7.86458778381      2.47205805779       
-59.916179657       -17.6944408417      -2.47207999229      
-59.916179657       -17.6944408417      2.47205805779       
-59.916179657       -12.7600603104      7.37721014023       
-59.916179657       -7.90349721909      -7.37723112106      
-59.916179657       -7.90349721909      7.37721014023       
-59.916179657       -2.96911501884      -2.47207999229      
-59.916179657       -2.96911501884      2.47205805779       
-59.9161682129      -12.7600603104      -7.37723112106      
-59.3074989319      -3.08522796631      7.37721014023       
-59.3074913025      -17.5783290863      7.37721014023       
-59.3074913025      -3.08523011208      -7.37723112106      
-59.3074798584      -17.5783290863      -7.37723112106      
-58.6890602112      1.81024503708       -2.47207999229      
-58.6890602112      1.81024503708       2.47205805779       
-58.6890487671      -12.682849884       12.1660203934       
-58.6890487671      -7.98070001602      12.1660203934       
-58.6890411377      -22.4738006592      -2.47207999229      
-58.6890411377      -22.4738006592      2.47205805779       
-58.6890411377      -12.682849884       -12.1660404205      
-58.6890411377      -7.9807009697       -12.1660404205      
-58.0997200012      -3.31562399864      12.1660203934       
-58.0997200012      1.61875796318       7.37721014023       
-58.0997085571      -17.3479309082      12.1660203934       
-58.0997085571      -3.31562495232      -12.1660404205      
-58.0997085571      1.61875605583       -7.37723112106      
-58.0997009277      -22.2823104858      -7.37723112106      
-58.0997009277      -22.2823104858      7.37721014023       
-58.0997009277      -17.3479309082      -12.1660404205      
-56.9303398132      1.23880195618       -12.1660404205      
-56.9303398132      1.23880505562       12.1660203934       
-56.9303283691      -21.9023609161      12.1660203934       
-56.9303207397      -21.9023609161      -12.1660404205      
-56.8725891113      -8.09498214722      16.762960434        
-56.8725891113      6.39811706543       -2.47207999229      
-56.8725891113      6.39811706543       2.47205805779       
-56.8725814819      -12.568570137       16.762960434        
-56.8725700378      -27.0616703033      -2.47207999229      
-56.8725700378      -27.0616703033      2.47205805779       
-56.8725700378      -12.568570137       -16.7629795074      
-56.8725700378      -8.09498214722      -16.7629795074      
-56.3119010925      -3.65666699409      16.762960434        
-56.3119010925      6.13427686691       7.37721014023       
-56.3118896484      -17.0068893433      16.762960434        
-56.3118896484      -3.65667009354      -16.7629795074      
-56.3118896484      6.13427495956       -7.37723112106      
-56.3118782043      -26.7978305817      -7.37723112106      
-56.3118782043      -26.7978305817      7.37721014023       
-56.3118782043      -17.0068798065      -16.7629795074      
-55.1993598938      0.676377296448      16.762960434        
-55.1993598938      5.61075496674       -12.1660404205      
-55.1993598938      5.61075782776       12.1660203934       
-55.1993484497      -26.2743091583      12.1660203934       
-55.1993484497      -21.3399295807      16.762960434        
-55.1993484497      0.67637348175       -16.7629795074      
-55.1993408203      -26.2743091583      -12.1660404205      
-55.1993408203      -21.3399200439      -16.7629795074      
-54.4954299927      -8.24453830719      21.095539093        
-54.4954299927      10.7221498489       -2.47207999229      
-54.4954299927      10.7221498489       2.47205805779       
-54.4954185486      -12.4190101624      21.095539093        
-54.4954185486      -8.24453926086      -21.0955505371      
-54.4954109192      -31.3857002258      -2.47207999229      
-54.4954109192      -31.3857002258      2.47205805779       
-54.4954109192      -12.4190101624      -21.0955505371      
-53.972240448       10.3901195526       7.37721014023       
-53.9722290039      -4.10298204422      21.095539093        
-53.9722290039      10.3901100159       -7.37723112106      
-53.9722213745      -16.5605697632      21.095539093        
-53.9722213745      -4.10298299789      -21.0955505371      
-53.9722099304      -31.0536708832      7.37721014023       
-53.9722099304      -31.0536594391      -7.37723112106      
-53.9722099304      -16.5605697632      -21.0955505371      
-53.5525283813      4.83581590652       16.762960434        
-53.552520752       4.83581209183       -16.7629795074      
-53.5525093079      -25.499370575       16.762960434        
-53.5525016785      -25.4993591309      -16.7629795074      
-52.9340896606      9.73128700256       12.1660203934       
-52.9340782166      -0.0596571005881    21.095539093        
-52.9340782166      9.73128318787       -12.1660404205      
-52.9340705872      -20.6038894653      21.095539093        
-52.9340705872      -0.0596590004861    -21.0955505371      
-52.9340591431      -30.3948402405      12.1660203934       
-52.9340591431      -30.3948307037      -12.1660404205      
-52.9340591431      -20.6038894653      -21.0955505371      
-51.5950813293      14.7141504288       -2.47207999229      
-51.5950813293      14.7141504288       2.47205805779       
-51.5950698853      -12.2365398407      25.0954303741       
-51.5950698853      -8.42701053619      25.0954303741       
-51.5950584412      -8.42701244354      -25.0954494476      
-51.5950508118      -35.3777008057      -2.47207999229      
-51.5950508118      -35.3777008057      2.47205805779       
-51.5950508118      -12.236530304       -25.0954494476      
-51.3973617554      3.82167100906       21.095539093        
-51.3973617554      8.75605201721       16.762960434        
-51.3973503113      3.82166790962       -21.0955505371      
-51.3973503113      8.75604629517       -16.7629795074      
-51.3973388672      -29.4195995331      16.762960434        
-51.3973388672      -24.4852199554      21.095539093        
-51.3973388672      -24.4852104187      -21.0955505371      
-51.3973312378      -29.4195899963      -16.7629795074      
-51.1176185608      14.3191604614       7.37721014023       
-51.1176109314      -16.0160198212      25.0954303741       
-51.1176109314      -4.64752817154      25.0954303741       
-51.1176109314      14.319149971        -7.37723112106      
-51.1175994873      -16.0160198212      -25.0954494476      
-51.1175994873      -4.64753007889      -25.0954494476      
-51.1175918579      -34.982711792       7.37721014023       
-51.1175804138      -34.9827003479      -7.37723112106      
-50.1702308655      -0.957686424255     25.0954303741       
-50.1702308655      13.5354099274       12.1660203934       
-50.1702194214      -19.7058601379      25.0954303741       
-50.1702194214      -0.957690179348     -25.0954494476      
-50.1702194214      13.5354099274       -12.1660404205      
-50.1702003479      -34.1989593506      12.1660203934       
-50.1702003479      -34.1989517212      -12.1660404205      
-50.1702003479      -19.7058601379      -25.0954494476      
-49.3862915039      7.47979021072       21.095539093        
-49.3862800598      7.47978591919       -21.0955505371      
-49.3862686157      -28.1433391571      21.095539093        
-49.3862609863      -28.1433296204      -21.0955505371      
-48.7678489685      2.58431911469       25.0954303741       
-48.7678489685      12.3752603531       -16.7629795074      
-48.7678489685      12.3752603531       16.762960434        
-48.7678413391      2.58431410789       -25.0954494476      
-48.767829895       -33.03881073        16.762960434        
-48.767829895       -23.2478599548      25.0954303741       
-48.7678184509      -23.2478599548      -25.0954494476      
-48.7678108215      -33.0387992859      -16.7629795074      
-48.2172584534      -8.63952445984      28.6995506287       
-48.2172584534      18.3111591339       -2.47207999229      
-48.2172584534      18.3111591339       2.47205805779       
-48.217250824       -12.024020195       28.6995506287       
-48.217250824       -8.63952541351      -28.6995697021      
-48.2172393799      -12.024020195       -28.6995697021      
-48.2172317505      -38.9747009277      -2.47207999229      
-48.2172317505      -38.9747009277      2.47205805779       
-47.7930793762      17.8594398499       7.37721014023       
-47.7930717468      -5.28171682358      28.6995506287       
-47.7930717468      17.8594398499       -7.37723112106      
-47.7930603027      -15.3818302155      28.6995506287       
-47.7930603027      -5.28171920776      -28.6995697021      
-47.7930488586      -38.5229911804      7.37721014023       
-47.7930488586      -15.381819725       -28.6995697021      
-47.7930412292      -38.5229797363      -7.37723112106      
-46.9513893127      16.9631309509       12.1660203934       
-46.9513816833      -2.00355100632      28.6995506287       
-46.9513816833      16.9631309509       -12.1660404205      
-46.9513702393      -18.6599903107      28.6995506287       
-46.9513702393      -2.00355505943      -28.6995697021      
-46.9513587952      -18.6599903107      -28.6995697021      
-46.9513511658      -37.6266784668      12.1660203934       
-46.9513511658      -37.6266708374      -12.1660404205      
-46.932598114       5.92262983322       25.0954303741       
-46.932598114       10.8570098877       21.095539093        
-46.9325904846      5.92262506485       -25.0954494476      
-46.9325904846      10.8570098877       -21.0955505371      
-46.9325790405      -26.5861701965      25.0954303741       
[...]
CELL_DATA 2400
SCALARS pressure_coefficient float 1
LOOKUP_TABLE default
-1.48416218551      
-1.48756059342      
-1.49155208688      
-1.49588489476      
-1.50028723834      
-1.50448055718      
-1.50820600646      
-1.51122844765      
-1.51335748134      
-1.51445698228      
-1.51445027801      
-1.51335326584      
-1.51122697729      
-1.50821039338      
-1.50448310486      
-1.5002895322       
-1.49588387596      
-1.4915582727       
-1.48756410993      
-1.48415342287      
-1.48156933214      
-1.47994512684      
-1.47939127218      
-1.47994415979      
-1.48156760974      
-1.4841602926       
-1.48755942378      
-1.49155217229      
-1.49585585964      
-1.50025112139      
-1.50443572738      
-1.50821159531      
-1.5111636492       
-1.51328320525      
-1.51437323851      
-1.51445939296      
-1.5132632179       
-1.51113982404      
-1.50821664595      
-1.50440292407      
-1.50020752391      
-1.49589652697      
-1.49148918655      
-1.48751563295      
-1.48412192648      
-1.4815705784       
-1.47994703984      
-1.47939335604      
-1.47994548898      
-1.4815688077       
-13.1764480655      
-1.2547650837       
-12.2002528658      
-1.27720146105      
-10.9518275472      
-1.3039599982       
-9.51007255806      
-1.33339677808      
-7.96523026021      
-1.36361848109      
-6.41459197588      
-1.3928158753       
-4.95564589833      
-1.41899781088      
-3.67989440043      
-1.44066715681      
-2.66749955224      
-1.45639385284      
-1.98227026663      
-1.46518908447      
-1.66691335171      
-1.46654717943      
-1.74166255132      
-1.46034009628      
-2.20147432315      
-1.44691358507      
-3.01773961824      
-1.42722866647      
-4.13883174733      
-1.40239510316      
-5.49458773778      
-1.37409774933      
-6.99984860338      
-1.34400848767      
-8.55962555677      
-1.3140661982       
-10.0764594012      
-1.28617763267      
-11.4550583663      
-1.2620268577       
-12.6079786952      
-1.24317555604      
-13.4635879326      
-1.2308213055       
-13.9677728246      
-1.22572934546      
-14.0891014365      
-1.22821021097      
-13.8194989199      
-1.23807775191      
-13.1766229608      
-1.25478289871      
-12.2001257731      
-1.27719780167      
-10.9517041537      
-1.3039735395       
-9.5098432292       
-1.33339088864      
-7.96507920711      
-1.36364436282      
-6.41455394411      
-1.39277794488      
-4.95557317233      
-1.41900727569      
-3.67982209246      
-1.44068040202      
-2.66750286909      
-1.45636409354      
-1.98223006099      
-1.46520912334      
-1.66698847103      
-1.46651254494      
-1.74167620833      
-1.46030488291      
-2.20146793468      
-1.4469049534       
-3.01772553876      
-1.42722528078      
-4.13888172813      
-1.40239410386      
-5.49470447295      
-1.37408397356      
-6.99983356822      
-1.34399554281      
-8.55974907236      
-1.31406156768      
-10.0766167528      
-1.28617126058      
-11.4546130651      
-1.26203375691      
-12.6079360893      
-1.24321323028      
-13.4635708004      
-1.23083948297      
-13.9677602599      
-1.22572533476      
-14.0891647204      
-1.22820009128      
-13.8198303473      
-1.23808692436      
-2.15821109938      
-1.51555762359      
-2.04589524851      
-1.51989230206      
-1.92422211834      
-1.51804290378      
-1.80086310006      
-1.51010474082      
-1.68350816875      
-1.49659444096      
-1.57960295847      
-1.47835571366      
-1.49559401963      
-1.45654430773      
-1.43683288218      
-1.43253661824      
-1.40695282838      
-1.4078189164       
-1.40791711157      
-1.38394270551      
-1.43955169301      
-1.36242887724      
-1.49995245597      
-1.34460733942      
-1.5852620191       
-1.33163837971      
-1.69021773413      
-1.32429690895      
-1.80814366873      
-1.32303639759      
-1.93161444799      
-1.3279581188       
-2.05290676176      
-1.33876018766      
-2.16445481996      
-1.35477303649      
-2.25917893496      
-1.37492390728      
-2.33112035853      
-1.39802832971      
-2.37577004013      
-1.42260448828      
-2.39035604188      
-1.44709405486      
-2.37391683033      
-1.4699716722       
-2.32752645074      
-1.48979935551      
-2.2540998206       
-1.50531293106      
-2.15821047274      
-1.51556220433      
-2.04590616412      
-1.5198954317       
-1.92424732868      
-1.51803808179      
-1.80085571294      
-1.5101038011       
-1.68350502779      
-1.49659101609      
-1.57958631305      
-1.47837957368      
-1.4955583735       
-1.45655883906      
-1.43680075701      
-1.43254895809      
-1.40695328428      
-1.4078140986       
-1.40791596229      
-1.38395076764      
-1.4395381312       
-1.36241886279      
-1.499948231        
-1.34460621658      
-1.58528094859      
-1.33164886906      
-1.69024556536      
-1.32426952137      
-1.80813323515      
-1.32303584081      
-1.93165489197      
-1.32796629026      
-2.05293876446      
-1.3387661985       
-2.16445330826      
-1.35475765464      
-2.25916003091      
-1.37493647898      
-2.33111165255      
-1.39804614651      
-2.37576432192      
-1.42260445554      
-2.39033519346      
-1.44710067533      
-2.37393714698      
-1.46996589886      
-2.32755296098      
-1.48978248107      
-2.25410406899      
-1.50532119036      
-1.70990613124      
-0.923637519825     
-1.64540345654      
-0.940034411638     
-1.57638967742      
-0.966403242863     
-1.50720586677      
-1.00109625626      
-1.44218825037      
-1.04193898061      
-1.38541819979      
-1.08633703339      
-1.34049617621      
-1.13154238092      
-1.31020558303      
-1.17468003923      
-1.29646729107      
-1.21303985103      
-1.30013321935      
-1.24423492404      
-1.32099531483      
-1.26627006902      
-1.35771932215      
-1.27781383415      
-1.40801567072      
-1.27811188292      
-1.46869254907      
-1.26710773401      
-1.5359946875       
-1.24557530127      
-1.60566292149      
-1.21478615379      
-1.67327953878      
-1.17672278854      
-1.73464206905      
-1.13376641264      
-1.78591635721      
-1.08860822936      
-1.82383132912      
-1.04409217877      
-1.8460211069       
-1.00301540215      
-1.85107318597      
-0.967966996334     
-1.83873046863      
-0.941129052427     
-1.80971885919      
-0.924197655516     
-1.76583346804      
-0.918246499461     
-1.70989179528      
-0.923637620924     
-1.64539810062      
-0.940034342861     
-1.57638382722      
-0.966409789958     
-1.50720354096      
-1.00110793594      
-1.4421840687       
-1.04192273987      
-1.38542544199      
-1.08634106021      
-1.34047012991      
-1.13153192387      
-1.31019887158      
-1.17465203454      
-1.29645091768      
-1.21302765295      
-1.30013748579      
-1.24422167616      
-1.32098173377      
-1.26628434589      
-1.35771918249      
-1.27782646701      
-1.40801097273      
-1.27810346976      
-1.4687027752       
-1.26712398939      
-1.53599690447      
-1.24557623877      
-1.60564797092      
-1.2147935396       
-1.67327959155      
-1.17672432529      
-1.73465521246      
-1.13377081332      
-1.78591363564      
-1.08861051821      
-1.82382996173      
-1.04409693597      
-1.84600934469      
-1.0030270279       
-1.85108151452      
-0.967966785734     
-1.83873111915      
-0.941130453647     
-1.80970874116      
-0.924204158101     
-1.76586991833      
-0.918257947047     
-1.33242010573      
-0.512830409209     
-1.30318431821      
-0.542320340013     
-1.27551244727      
-0.592774785805     
-1.25114570973      
-0.661048686679     
-1.23163669821      
-0.74283981349      
-1.21820490551      
-0.833016825091     
-1.21169261215      
-0.925888378695     
-1.21251309785      
-1.01566215826      
-1.22059172022      
-1.09667238171      
-1.23546016229      
-1.16380892199      
-1.25613256031      
-1.21288680302      
-1.28135350498      
-1.24080084337      
-1.30955089744      
-1.24581563263      
-1.33887403895      
-1.22760486329      
-1.36757237745      
-1.18731987783      
-1.39380903631      
-1.12749323872      
-1.4159041877       
-1.05185591853      
-1.4325025117       
-0.965187803982     
-1.4425677861       
-0.872932860794     
-1.4454465528       
-0.780893963107     
-1.44095921906      
-0.694823648857     
-1.42938950593      
-0.62016891329      
-1.41149030747      
-0.561585326259     
-1.38833035158      
-0.522784771228     
-1.36142110021      
-0.506184664149     
-1.33244496679      
-0.512832781936     
-1.30318010663      
-0.542320041347     
-1.27549939613      
-0.592786437422     
-1.25115534619      
-0.661052202337     
-1.2316384892       
-0.742839246908     
-1.21820050207      
-0.833012224522     
-1.21168983784      
-0.925900166948     
-1.21249324208      
-1.01566080886      
-1.22058970961      
-1.09665488924      
-1.23543947093      
-1.16381074917      
-1.25613678416      
-1.21288277325      
-1.28136117826      
-1.24082264202      
-1.30954661101      
-1.24582145572      
-1.33887793662      
-1.2276069697       
-1.36757790139      
-1.18731919198      
-1.39380578356      
-1.12747763974      
-1.41590704471      
-1.05185122106      
-1.43251171426      
-0.96518913015      
-1.44256477351      
-0.872932475872     
-1.44543719704      
-0.780886592401     
-1.44094652826      
-0.694827123653     
-1.42938352593      
-0.620165247961     
-1.41146732299      
-0.561587307746     
-1.3883208321       
-0.522785735553     
-1.36144300007      
-0.506186811702     
-0.984525043082     
-0.234294946935     
-0.984238526056     
-0.270918805707     
-0.992468391803     
-0.336155547378     
-1.00868356479      
-0.425894059436     
-1.03186805533      
-0.534497635214     
-1.06055684033      
-0.655149338503     
-1.09294351628      
-0.78025090457      
-1.12700957875      
-0.901989403574     
-1.160600899        
-1.01266180656      
-1.19161696236      
-1.10532324781      
-1.21809129604      
-1.17417124392      
-1.23839037691      
-1.21486591899      
-1.25120160296      
-1.22485793198      
-1.25576401428      
-1.20352098881      
-1.25175258826      
-1.15217351607      
-1.23943420703      
-1.07407925134      
-1.21957884058      
-0.974127502294     
-1.19343342268      
-0.858578924074     
-1.16265425724      
-0.734720681341     
-1.12916343713      
-0.610323882703     
-1.09506787065      
-0.493210775784     
-1.06250685133      
-0.390726178022     
-1.03353328569      
-0.309330065032     
-1.00994099974      
-0.254121542199     
-0.993259701593     
-0.228576346467     
-0.984501776211     
-0.234299483012     
-0.984238480154     
-0.270918187177     
-0.992472758432     
-0.336154245606     
-1.00868085936      
-0.425893342823     
-1.03185659943      
-0.534498466899     
-1.0605448643       
-0.655156644936     
-1.09293533563      
-0.780263552546     
-1.12700714988      
-0.901989878856     
-1.16059362585      
-1.01264415116      
-1.19161187276      
-1.10532474725      
-1.21809779748      
-1.17416833942      
-1.23839636656      
-1.21486440482      
-1.25120517318      
-1.22485040365      
-1.25576250815      
-1.20350735869      
-1.25175005032      
-1.15217889314      
-1.23943220808      
-1.07407791249      
-1.2195798104       
-0.974114683026     
-1.19343911514      
-0.858574964893     
-1.16265906921      
-0.734714663438     
-1.12916348831      
-0.610317198201     
-1.09506350261      
-0.493199487391     
-1.0625038626       
-0.390725262671     
-1.03352536262      
-0.309326051954     
-1.00994943692      
-0.254121480089     
-0.993283118996     
-0.228574597047     
-0.664473481523     
-0.0330229658775    
-0.688329734552     
-0.0706399324899    
-0.727915479869     
-0.142801477977     
-0.780751890551     
-0.244968115952     
-0.843522396855     
-0.370724349063     
-0.912278549622     
-0.512165009673     
-0.982700354761     
-0.660411049991     
-1.05036286166      
-0.806140283699     
-1.11102022608      
-0.9402026045       
-1.16085293537      
-1.05415870798      
-1.19672001751      
-1.14086297445      
-1.21639302886      
-1.19485738309      
-1.2186008432       
-1.21276266655      
-1.20325943087      
-1.19343133891      
-1.17128490027      
-1.13811607928      
-1.1246903815       
-1.05026744926      
-1.0664360032       
-0.935395205241     
-1.00015014926      
-0.800735684364     
-0.930006685165     
-0.654747733314     
-0.860421837972     
-0.506581282324     
-0.795754568252     
-0.365583687155     
-0.740088544829     
-0.240588722562     
-0.696884574747     
-0.139459317384     
-0.668889560682     
-0.0685483268899    
-0.657864400573     
-0.0323086828497    
-0.664471563988     
-0.0330235783494    
-0.688329923171     
-0.0706434624602    
-0.727920495958     
-0.142798616003     
-0.780755994754     
-0.244971196357     
-0.843525191982     
-0.3707261332       
-0.912290773198     
-0.512172241654     
-0.982709134958     
-0.660413645087     
-1.05035668625      
-0.80613080014      
-1.11101123294      
-0.940196166455     
-1.16083112028      
-1.05415871004      
-1.19672097908      
-1.14085976533      
-1.21638956619      
-1.19485569625      
-1.21861443297      
-1.2127664919       
-1.20325312868      
-1.19344201751      
-1.17127981068      
-1.13811893199      
-1.12469990113      
-1.05026339254      
-1.06643738348      
-0.935394271492     
-1.00015068819      
-0.800734313803     
-0.930009254972     
-0.654740306424     
-0.860422315759     
-0.506584101555     
-0.795756252335     
-0.365584465001     
-0.740081762447     
-0.240590176988     
-0.696884430478     
-0.139460187403     
-0.668891223997     
-0.0685465532839    
-0.657872609139     
-0.0323040567246    
-0.375997726433     
0.126345759212      
-0.419847344777     
0.0916683382251     
-0.486520832062     
0.0173223813441     
-0.571836719221     
-0.0920175210819    
-0.670450903574     
-0.229486735356     
-0.776127180513     
-0.386436779223     
-0.882268442981     
-0.553020597527     
-0.982174212497     
-0.718764094246     
-1.06958531219      
-0.873257520841     
-1.13900031275      
-1.0067875158       
-1.18606583818      
-1.11094300589      
-1.20780778362      
-1.17922003318      
-1.20287470433      
-1.20731216296      
-1.17155491521      
-1.1934477867       
-1.11587854358      
-1.13850082905      
-1.03926088133      
-1.04593641644      
-0.946562960798     
-0.921544688311     
-0.843608753462     
-0.773169028798     
-0.736851236811     
-0.610108873602     
-0.633013235228     
-0.442623609819     
-0.538606053422     
-0.281244087151     
-0.459575787619     
-0.136095209415     
-0.40086107358      
-0.0162970843583    
-0.366190191141     
0.0706133287852     
-0.357740466741     
0.119174941158      
-0.375999721487     
0.126345242781      
-0.41983949074      
0.0916685972044     
-0.486519971062     
0.017325860144      
-0.571842933172     
-0.0920177291895    
-0.670444924367     
-0.229485472947     
-0.776129980389     
-0.386443965431     
-0.88226695449      
-0.553028207203     
-0.982168214884     
-0.718757695116     
-1.06959231675      
-0.873250210998     
-1.1389980729       
-1.00677706998      
-1.1860554423       
-1.11094965865      
-1.20780121952      
-1.17921446327      
-1.2028715419       
-1.20731214421      
-1.17156860838      
-1.19344871202      
-1.11585883804      
-1.13849936227      
-1.03926027061      
-1.04592281561      
-0.94655861448      
-0.921541595579     
-0.843603487097     
-0.773161233704     
-0.736850361299     
-0.610104952097     
-0.633014986751     
-0.442624335497     
-0.538610903627     
-0.281239354884     
-0.4595777638       
-0.136088935989     
-0.400878348705     
-0.0162959979097    
-0.366202365551     
0.0706119087337     
-0.35773523208      
0.11918268816       
-0.124109548997     
0.25875327718       
-0.184242151124     
0.228686584504      
-0.273755612793     
0.154428856215      
-0.387025577163     
0.0406420964974     
-0.516930954532     
-0.10552931638      
-0.655311245487     
-0.27488632531      
-0.793476272705     
-0.456795384481     
-0.922735124094     
-0.63983393628      
-1.03497581443      
-0.81248568087      
-1.12313109528      
-0.963915270026     
-1.18169685081      
-1.08459236294      
-1.20694219782      
-1.16696540708      
-1.19730614641      
-1.20583881267      
-1.15341097058      
-1.19874120298      
-1.07798740492      
-1.14617292007      
-0.975806230325     
-1.05140077104      
-0.853251343184     
-0.920392373962     
-0.718033917664     
-0.761372185617     
-0.578666070864     
-0.584341931858     
-0.443893629763     
-0.400418101252     
-0.322182032051     
-0.221153349398     
-0.221193021136     
-0.0578281505215    
-0.147252094145     
0.0793140030701     
-0.105004414377     
0.181640801885      
-0.0971434503057    
0.242735610761      
-0.124111314871     
0.258756556059      
-0.184241249663     
0.228690660478      
-0.273748328055     
0.154430996885      
-0.387023031729     
0.0406425671073     
-0.516930173847     
-0.105527511815     
-0.655315017569     
-0.274886285399     
-0.793472607004     
-0.456794972034     
-0.922729361681     
-0.639835711154     
-1.03497141963      
-0.81248591943      
-1.12313561569      
-0.963915898229     
-1.1816810057       
-1.08460846359      
-1.20693247714      
-1.16696442104      
-1.19731587109      
-1.20582429865      
-1.15341302176      
-1.19875257124      
-1.07799397446      
-1.14617061587      
-0.975797625623     
-1.05139440084      
-0.853243415345     
-0.920388096104     
-0.718032543589     
-0.761369806045     
-0.578666427237     
-0.584341349312     
-0.443890616579     
-0.400416671571     
-0.322181823177     
-0.221156701406     
-0.22117882473      
-0.0578255015648    
-0.147246040749     
0.0793133239123     
-0.105011700233     
0.181643047767      
-0.0971451954547    
0.24274720654       
0.08577864489       
0.365228713968      
0.012931162183      
0.339984633952      
-0.0949594545487    
0.266780461046      
-0.231114878346     
0.150205418407      
-0.386990862555     
-0.00240941681109   
-0.552771142313     
-0.181471280748     
-0.71805883914      
-0.375738078219     
-0.872469634106     
-0.573000010673     
-1.00628337923      
-0.760843804869     
-1.11110170814      
-0.927505464736     
-1.18034142243      
-1.06247408957      
-1.20964923683      
-1.15729964604      
-1.1971739672       
-1.20599420759      
-1.14372228711      
-1.20552451478      
-1.05263773107      
-1.15590559615      
-0.929631156969     
-1.06025880457      
-0.782457895572     
-0.924610798422     
-0.620354310926     
-0.757448221971     
-0.453495469225     
-0.56929662926      
-0.292379627284     
-0.371976038949     
-0.147123245736     
-0.177893065854     
-0.0268611021966    
0.000769217746706   
0.0608640910629     
0.15277897431       
0.11052080137       
0.268593751932      
0.118994238971      
0.340916223474      
0.0857824892923     
0.365232130565      
0.0129386384113     
0.339989415862      
-0.0949524311837    
0.266777859194      
-0.231117359866     
0.15020331976       
-0.386991672494     
-0.00240880894254   
-0.55276960211      
-0.18147223747      
-0.718064880274     
-0.37573323749      
-0.872462574864     
-0.572995248851     
-1.00628455216      
-0.760849461191     
-1.1110988981       
-0.927503688906     
-1.18033713048      
-1.06247768692      
-1.20964295631      
-1.15729641121      
-1.19717383781      
-1.20599805938      
-1.14371882771      
-1.20552881115      
-1.05262668585      
-1.15590908554      
-0.929628555821     
-1.06026315271      
-0.782453054184     
-0.924597177683     
-0.620349684024     
-0.757443925255     
-0.453493374648     
-0.569294871597     
-0.292376177401     
-0.371975929267     
-0.147126606953     
-0.177890614843     
-0.0268553216064    
0.000773685584334   
0.0608577027576     
0.152785505815      
0.110516767097      
0.268591923115      