# vtk DataFile Version 3.0
PyPan results file. Generated by PyPan, USU AeroLab (c) 2020.
ASCII
DATASET POLYDATA
POINTS 1202 float
-60.5346183777      -12.7989702225      -2.47207999229      
-60.5346183777      -12.7989702225      2.47205805779       
-60.5346183777      -7.86458778381      -2.47207999229      
-60.5346183777      -7.86458778381      2.47205805779       
-59.916179657       -17.6944408417      -2.47207999229      
-59.916179657       -17.6944408417      2.47205805779       
-59.916179657       -12.7600603104      7.37721014023       
-59.916179657       -7.90349721909      -7.37723112106      
-59.916179657       -7.90349721909      7.37721014023       
-59.916179657       -2.96911501884      -2.47207999229      
-59.916179657       -2.96911501884      2.47205805779       
-59.9161682129      -12.7600603104      -7.37723112106      
-59.3074989319      -3.08522796631      7.37721014023       
-59.3074913025      -17.5783290863      7.37721014023       
-59.3074913025      -3.08523011208      -7.37723112106      
-59.3074798584      -17.5783290863      -7.37723112106      
-58.6890602112      1.81024503708       -2.47207999229      
-58.6890602112      1.81024503708       2.47205805779       
-58.6890487671      -12.682849884       12.1660203934       
-58.6890487671      -7.98070001602      12.1660203934       
-58.6890411377      -22.4738006592      -2.47207999229      
-58.6890411377      -22.4738006592      2.47205805779       
-58.6890411377      -12.682849884       -12.1660404205      
-58.6890411377      -7.9807009697       -12.1660404205      
-58.0997200012      -3.31562399864      12.1660203934       
-58.0997200012      1.61875796318       7.37721014023       
-58.0997085571      -17.3479309082      12.1660203934       
-58.0997085571      -3.31562495232      -12.1660404205      
-58.0997085571      1.61875605583       -7.37723112106      
-58.0997009277      -22.2823104858      -7.37723112106      
-58.0997009277      -22.2823104858      7.37721014023       
-58.0997009277      -17.3479309082      -12.1660404205      
-56.9303398132      1.23880195618       -12.1660404205      
-56.9303398132      1.23880505562       12.1660203934       
-56.9303283691      -21.9023609161      12.1660203934       
-56.9303207397      -21.9023609161      -12.1660404205      
-56.8725891113      -8.09498214722      16.762960434        
-56.8725891113      6.39811706543       -2.47207999229      
-56.8725891113      6.39811706543       2.47205805779       
-56.8725814819      -12.568570137       16.762960434        
-56.8725700378      -27.0616703033      -2.47207999229      
-56.8725700378      -27.0616703033      2.47205805779       
-56.8725700378      -12.568570137       -16.7629795074      
-56.8725700378      -8.09498214722      -16.7629795074      
-56.3119010925      -3.65666699409      16.762960434        
-56.3119010925      6.13427686691       7.37721014023       
-56.3118896484      -17.0068893433      16.762960434        
-56.3118896484      -3.65667009354      -16.7629795074      
-56.3118896484      6.13427495956       -7.37723112106      
-56.3118782043      -26.7978305817      -7.37723112106      
-56.3118782043      -26.7978305817      7.37721014023       
-56.3118782043      -17.0068798065      -16.7629795074      
-55.1993598938      0.676377296448      16.762960434        
-55.1993598938      5.61075496674       -12.1660404205      
-55.1993598938      5.61075782776       12.1660203934       
-55.1993484497      -26.2743091583      12.1660203934       
-55.1993484497      -21.3399295807      16.762960434        
-55.1993484497      0.67637348175       -16.7629795074      
-55.1993408203      -26.2743091583      -12.1660404205      
-55.1993408203      -21.3399200439      -16.7629795074      
-54.4954299927      -8.24453830719      21.095539093        
-54.4954299927      10.7221498489       -2.47207999229      
-54.4954299927      10.7221498489       2.47205805779       
-54.4954185486      -12.4190101624      21.095539093        
-54.4954185486      -8.24453926086      -21.0955505371      
-54.4954109192      -31.3857002258      -2.47207999229      
-54.4954109192      -31.3857002258      2.47205805779       
-54.4954109192      -12.4190101624      -21.0955505371      
-53.972240448       10.3901195526       7.37721014023       
-53.9722290039      -4.10298204422      21.095539093        
-53.9722290039      10.3901100159       -7.37723112106      
-53.9722213745      -16.5605697632      21.095539093        
-53.9722213745      -4.10298299789      -21.0955505371      
-53.9722099304      -31.0536708832      7.37721014023       
-53.9722099304      -31.0536594391      -7.37723112106      
-53.9722099304      -16.5605697632      -21.0955505371      
-53.5525283813      4.83581590652       16.762960434        
-53.552520752       4.83581209183       -16.7629795074      
-53.5525093079      -25.499370575       16.762960434        
-53.5525016785      -25.4993591309      -16.7629795074      
-52.9340896606      9.73128700256       12.1660203934       
-52.9340782166      -0.0596571005881    21.095539093        
-52.9340782166      9.73128318787       -12.1660404205      
-52.9340705872      -20.6038894653      21.095539093        
-52.9340705872      -0.0596590004861    -21.0955505371      
-52.9340591431      -30.3948402405      12.1660203934       
-52.9340591431      -30.3948307037      -12.1660404205      
-52.9340591431      -20.6038894653      -21.0955505371      
-51.5950813293      14.7141504288       -2.47207999229      
-51.5950813293      14.7141504288       2.47205805779       
-51.5950698853      -12.2365398407      25.0954303741       
-51.5950698853      -8.42701053619      25.0954303741       
-51.5950584412      -8.42701244354      -25.0954494476      
-51.5950508118      -35.3777008057      -2.47207999229      
-51.5950508118      -35.3777008057      2.47205805779       
-51.5950508118      -12.236530304       -25.0954494476      
-51.3973617554      3.82167100906       21.095539093        
-51.3973617554      8.75605201721       16.762960434        
-51.3973503113      3.82166790962       -21.0955505371      
-51.3973503113      8.75604629517       -16.7629795074      
-51.3973388672      -29.4195995331      16.762960434        
-51.3973388672      -24.4852199554      21.095539093        
-51.3973388672      -24.4852104187      -21.0955505371      
-51.3973312378      -29.4195899963      -16.7629795074      
-51.1176185608      14.3191604614       7.37721014023       
-51.1176109314      -16.0160198212      25.0954303741       
-51.1176109314      -4.64752817154      25.0954303741       
-51.1176109314      14.319149971        -7.37723112106      
-51.1175994873      -16.0160198212      -25.0954494476      
-51.1175994873      -4.64753007889      -25.0954494476      
-51.1175918579      -34.982711792       7.37721014023       
-51.1175804138      -34.9827003479      -7.37723112106      
-50.1702308655      -0.957686424255     25.0954303741       
-50.1702308655      13.5354099274       12.1660203934       
-50.1702194214      -19.7058601379      25.0954303741       
-50.1702194214      -0.957690179348     -25.0954494476      
-50.1702194214      13.5354099274       -12.1660404205      
-50.1702003479      -34.1989593506      12.1660203934       
-50.1702003479      -34.1989517212      -12.1660404205      
-50.1702003479      -19.7058601379      -25.0954494476      
-49.3862915039      7.47979021072       21.095539093        
-49.3862800598      7.47978591919       -21.0955505371      
-49.3862686157      -28.1433391571      21.095539093        
-49.3862609863      -28.1433296204      -21.0955505371      
-48.7678489685      2.58431911469       25.0954303741       
-48.7678489685      12.3752603531       -16.7629795074      
-48.7678489685      12.3752603531       16.762960434        
-48.7678413391      2.58431410789       -25.0954494476      
-48.767829895       -33.03881073        16.762960434        
-48.767829895       -23.2478599548      25.0954303741       
-48.7678184509      -23.2478599548      -25.0954494476      
-48.7678108215      -33.0387992859      -16.7629795074      
-48.2172584534      -8.63952445984      28.6995506287       
-48.2172584534      18.3111591339       -2.47207999229      
-48.2172584534      18.3111591339       2.47205805779       
-48.217250824       -12.024020195       28.6995506287       
-48.217250824       -8.63952541351      -28.6995697021      
-48.2172393799      -12.024020195       -28.6995697021      
-48.2172317505      -38.9747009277      -2.47207999229      
-48.2172317505      -38.9747009277      2.47205805779       
-47.7930793762      17.8594398499       7.37721014023       
-47.7930717468      -5.28171682358      28.6995506287       
-47.7930717468      17.8594398499       -7.37723112106      
-47.7930603027      -15.3818302155      28.6995506287       
-47.7930603027      -5.28171920776      -28.6995697021      
-47.7930488586      -38.5229911804      7.37721014023       
-47.7930488586      -15.381819725       -28.6995697021      
-47.7930412292      -38.5229797363      -7.37723112106      
-46.9513893127      16.9631309509       12.1660203934       
-46.9513816833      -2.00355100632      28.6995506287       
-46.9513816833      16.9631309509       -12.1660404205      
-46.9513702393      -18.6599903107      28.6995506287       
-46.9513702393      -2.00355505943      -28.6995697021      
-46.9513587952      -18.6599903107      -28.6995697021      
-46.9513511658      -37.6266784668      12.1660203934       
-46.9513511658      -37.6266708374      -12.1660404205      
-46.932598114       5.92262983322       25.0954303741       
-46.932598114       10.8570098877       21.095539093        
-46.9325904846      5.92262506485       -25.0954494476      
-46.9325904846      10.8570098877       -21.0955505371      
-46.9325790405      -26.5861701965      25.0954303741       
[...]
CELL_DATA 2400
SCALARS pressure_coefficient float 1
LOOKUP_TABLE default
0.321011666049      
0.321011425584      
0.321012005068      
0.321013108763      
0.321011163712      
0.32101068898       
0.321012321517      
0.321011499421      
0.321011967313      
0.321012871533      
0.321007581481      
0.321009897854      
0.321009031389      
0.321011156327      
0.321012252824      
0.32101190287       
0.321012844942      
0.321013442267      
0.321013759587      
0.321014261163      
0.32101793832       
0.321014616106      
0.321011138619      
0.321014777738      
0.321015917839      
0.321016793384      
0.321019075502      
0.321019821354      
0.320997807703      
0.320996873846      
0.320998319239      
0.321015025406      
0.320997389646      
0.320997929992      
0.32099714716       
0.32101649903       
0.320997592834      
0.320996163258      
0.321015745812      
0.320998504271      
0.320997111741      
0.321019791459      
0.320997621518      
0.3209974039        
0.320993491205      
0.32101077744       
0.321013426045      
0.321012765211      
0.321012434136      
0.321012987004      
0.889303228946      
0.122816864353      
0.889303627858      
0.122823869012      
0.889304642705      
0.122819787147      
0.889303894405      
0.122823645129      
0.889302666772      
0.122819087356      
0.889302757609      
0.122838453012      
0.889303548286      
0.122816124044      
0.88930627946       
0.122818795549      
0.889302941986      
0.122820299541      
0.889305478203      
0.12281765727       
0.889301073058      
0.122828561663      
0.889302822894      
0.122832148624      
0.889302406399      
0.122811058142      
0.889304719991      
0.122828855374      
0.889301978148      
0.12281594227       
0.889301006577      
0.122829149444      
0.889305295874      
0.122820662574      
0.889305902931      
0.122818159572      
0.889304274686      
0.122835555537      
0.88930485071       
0.12281704366       
0.889305499744      
0.12280863171       
0.889306410531      
0.122819436734      
0.889303197033      
0.122826691689      
0.889303226744      
0.122820254275      
0.889303951335      
0.122801486052      
0.889302132671      
0.122820394658      
0.889303040855      
0.122805060758      
0.889304479343      
0.122816706002      
0.889303150733      
0.122814825892      
0.889306455527      
0.122839537677      
0.889303264546      
0.122822559064      
0.889304164194      
0.122815954842      
0.889305152987      
0.122828047752      
0.889305232044      
0.122820286515      
0.889305666978      
0.122837756865      
0.889304730231      
0.122821026928      
0.889304392302      
0.122820556666      
0.889303873808      
0.122821013156      
0.889304190369      
0.122835183152      
0.889303302741      
0.122814529573      
0.889305350727      
0.122829074067      
0.889304038307      
0.122816459063      
0.889304127168      
0.122813552935      
0.889304793564      
0.122828301289      
0.889305941163      
0.122826973368      
0.889302352981      
0.122836210563      
0.88930402266       
0.122816766536      
0.889305528123      
0.122826513277      
0.889302659812      
0.122821865941      
0.889304180857      
0.122808814219      
0.695953561454      
-0.233913087995     
0.695949178544      
-0.233935364492     
0.695951723077      
-0.233912829895     
0.695955104575      
-0.233919394541     
0.695950431231      
-0.233926467801     
0.695954907354      
-0.233930557546     
0.695950633259      
-0.233941250398     
0.695952623903      
-0.233921449077     
0.695949756405      
-0.233925887019     
0.695953501657      
-0.233920313831     
0.695950959717      
-0.233920001668     
0.695949757293      
-0.233934610311     
0.695947159796      
-0.233920513147     
0.695951744664      
-0.233906090415     
0.69595324704       
-0.233922712438     
0.695951533501      
-0.233923834187     
0.695946151047      
-0.233931949536     
0.695952407339      
-0.233910449248     
0.695952487956      
-0.233935766473     
0.695954633442      
-0.233922959156     
0.695949029374      
-0.233927600574     
0.695953291746      
-0.233929400548     
0.695951627707      
-0.233937194334     
0.695950164097      
-0.233925319806     
0.695948113694      
-0.233908665544     
0.695950408613      
-0.233922941362     
0.695952676462      
-0.233928225764     
0.695951662669      
-0.233930653959     
0.695953510812      
-0.23393019603      
0.695949864182      
-0.233920895271     
0.695951894515      
-0.233929871038     
0.695947841777      
-0.233926387733     
0.695945921315      
-0.233913845109     
0.695949590503      
-0.233934207113     
0.695954260843      
-0.233918115562     
0.695949979077      
-0.233942696539     
0.695951957258      
-0.233932136529     
0.695949327372      
-0.233906595456     
0.695954684612      
-0.233932532332     
0.695950677604      
-0.233923782321     
0.695956689578      
-0.233914368509     
0.695949718454      
-0.233923269157     
0.695952313776      
-0.233922611163     
0.695952364939      
-0.233917646284     
0.695951329433      
-0.233905974625     
0.695949438046      
-0.233940760818     
0.695949311557      
-0.233911049811     
0.695954196235      
-0.2339286103       
0.695954777626      
-0.233932100123     
0.695954422726      
-0.233908830812     
0.549832732145      
-0.450736060522     
0.549834163671      
-0.450731742898     
0.54983373882       
-0.450734293169     
0.549833253287      
-0.450745206474     
0.549835001583      
-0.450732037489     
0.549835215172      
-0.450736905144     
0.549835146755      
-0.450710182601     
0.549834628147      
-0.45072067815      
0.549834466238      
-0.45073733334      
0.549834231992      
-0.450721447204     
0.549836942841      
-0.450742177944     
0.549835510237      
-0.450720749153     
0.54983560626       
-0.450707765315     
0.549831426372      
-0.450747901554     
0.549831987263      
-0.450731747153     
0.549835687123      
-0.450746484455     
0.549834570322      
-0.450732473897     
0.549834501239      
-0.450728149802     
0.549834279975      
-0.450748975165     
0.549838125077      
-0.450742427339     
0.549836137574      
-0.450740462815     
0.549834953185      
-0.450706423636     
0.549834168863      
-0.450724776949     
0.549834185004      
-0.450730292061     
0.549832628061      
-0.450731067006     
0.549834572133      
-0.450749587647     
0.549831441903      
-0.450738936368     
0.549830875979      
-0.450735373808     
0.549834840023      
-0.450710220019     
0.549834075119      
-0.450754333739     
0.549834485737      
-0.45072033476      
0.549833830456      
-0.450727787229     
0.549836680472      
-0.4507397624       
0.549834293319      
-0.450726022525     
0.549835832286      
-0.450729095596     
0.549833759582      
-0.450728812893     
0.549833915905      
-0.450718530652     
0.549834130882      
-0.450732722151     
0.549832468442      
-0.450732755841     
0.549833827541      
-0.450722219006     
0.549833955758      
-0.450726140437     
0.549833058822      
-0.450739721468     
0.549834199554      
-0.450722710974     
0.549834691377      
-0.45073331399      
0.549834111274      
-0.450741999155     
0.549832350018      
-0.450730208233     
0.549833922083      
-0.45074148199      
0.549834640661      
-0.450747412908     
0.549832543022      
-0.450732993583     
0.549838455933      
-0.450743484418     
0.347297213983      
-0.598477562569     
0.347298388736      
-0.598458140795     
0.347299917856      
-0.598475391517     
0.347298107293      
-0.598459692476     
0.347300047516      
-0.598465771291     
0.347299547231      
-0.59844972446      
0.347297780195      
-0.598479216143     
0.347296935304      
-0.598472962436     
0.347297054657      
-0.59846408656      
0.347298214605      
-0.598477481211     
0.347297766838      
-0.59847277275      
0.347297345932      
-0.598488047045     
0.347296810593      
-0.598484104864     
0.34729794977       
-0.598478859537     
0.347298119416      
-0.598466881699     
0.347296679997      
-0.598455450699     
0.347298397894      
-0.598477815719     
0.347299320935      
-0.598477288897     
0.347300905747      
-0.59847611972      
0.347300246471      
-0.598446759346     
0.347298704925      
-0.598468904094     
0.347298323692      
-0.598455272448     
0.347298338931      
-0.59848224339      
0.347297479937      
-0.59846215734      
0.347298264187      
-0.598469170188     
0.34729989499       
-0.598464652095     
0.347296392898      
-0.598455202904     
0.347295693213      
-0.59845477995      
0.347299206047      
-0.598469181139     
0.347296049979      
-0.598481359049     
0.347298688599      
-0.598463098816     
0.347296247427      
-0.598469974703     
0.34729920563       
-0.598469125076     
0.347298484019      
-0.598472154994     
0.347299185517      
-0.598463670793     
0.347296756818      
-0.598475379087     
0.347297019131      
-0.598454849719     
0.347300339317      
-0.598465694955     
0.34729923893       
-0.598468071041     
0.347299802694      
-0.598467845072     
0.347299307471      
-0.598474145378     
0.34729929436       
-0.598471251098     
0.34729943433       
-0.598467707848     
0.347299144528      
-0.598469940543     
0.347298299603      
-0.598460828945     
0.34729786178       
-0.598464656056     
0.347298055093      
-0.598462680184     
0.34729829244       
-0.59846541116      
0.347297761481      
-0.598457127203     
0.347303438389      
-0.598476344673     
0.107475677673      
-0.710166719945     
0.107473096062      
-0.710169439202     
0.107473383431      
-0.710161538989     
0.107474142197      
-0.710156639528     
0.107476614172      
-0.71015384673      
0.10747420717       
-0.710162546671     
0.107473885511      
-0.710175935429     
0.10747181654       
-0.710149112706     
0.10747384102       
-0.71015486059      
0.107472656584      
-0.710162347711     
0.107475464455      
-0.710153553233     
0.107474310573      
-0.710147081218     
0.107478113988      
-0.710143360141     
0.107475790247      
-0.710138636515     
0.107473971072      
-0.710154304304     
0.107472635555      
-0.710154605805     
0.107471656958      
-0.710138484136     
0.107471921572      
-0.710162277604     
0.107476233011      
-0.710153617928     
0.107474439652      
-0.71015533861      
0.107473399481      
-0.710146282888     
0.107474344661      
-0.710161443563     
0.107473441151      
-0.710160633033     
0.107472836963      
-0.710152551138     
0.107471284713      
-0.710157468232     
0.107471243959      
-0.710155896937     
0.107473105555      
-0.710172699241     
0.107473047045      
-0.710158961191     
0.107473302579      
-0.710156462346     
0.107475099362      
-0.710163508206     
0.107473052193      
-0.71015205071      
0.107474085917      
-0.710164089445     
0.107474283497      
-0.710145722504     
0.10747453191       
-0.71016590312      
0.107473508185      
-0.710154435195     
0.107473664342      
-0.710158699202     
0.107474070963      
-0.7101583121       
0.107474623609      
-0.710168678445     
0.1074747254        
-0.710161912594     
0.107474032787      
-0.710153726851     
0.10747435157       
-0.710157314817     
0.107473895882      
-0.710157419056     
0.107475080995      
-0.71015874642      
0.107474806558      
-0.710155798993     
0.107473611222      
-0.710158348062     
0.10747415822       
-0.710163857807     
0.107474106464      
-0.710158789556     
0.107474806814      
-0.71015647609      
0.107473432546      
-0.710153806942     
0.107477002097      
-0.710170755026     
-0.148909562659     
-0.810758666812     
-0.148910589539     
-0.8107623914       
-0.148911085911     
-0.810758655711     
-0.148910988396     
-0.810758657127     
-0.148909812669     
-0.81076482329      
-0.148906009456     
-0.810760700293     
-0.148908970758     
-0.81075619557      
-0.148911432255     
-0.810761280974     
-0.148915403551     
-0.810767046445     
-0.148915623548     
-0.810758604641     
-0.148911811572     
-0.810759322063     
-0.148912933212     
-0.810763563336     
-0.148909242001     
-0.810762259947     
-0.148911540474     
-0.810774857703     
-0.148910121807     
-0.810768064198     
-0.148905355075     
-0.810765161443     
-0.148911507359     
-0.810773497966     
-0.148908370133     
-0.810763764031     
-0.148909863674     
-0.810755441239     
-0.148908844362     
-0.810770526645     
-0.148915003832     
-0.810769403785     
-0.148908221133     
-0.810782809428     
-0.148910723943     
-0.810769565572     
-0.148911926131     
-0.810762136562     
-0.148911766185     
-0.810777422413     
-0.148910636252     
-0.810760307988     
-0.148908620284     
-0.810745940484     
-0.148909887923     
-0.810762060006     
-0.148909676874     
-0.810752409821     
-0.148909043504     
-0.810758685122     
-0.148909541347     
-0.810759392094     
-0.148910923565     
-0.810758416306     
-0.148909411024     
-0.810761730374     
-0.148910744104     
-0.810759725505     
-0.148907537548     
-0.810759867682     
-0.148909266477     
-0.810756086203     
-0.148910405015     
-0.810761114905     
-0.148909053054     
-0.810756141738     
-0.148908687839     
-0.810759735059     
-0.148909250462     
-0.810757799        
-0.148910165721     
-0.810757934568     
-0.148911044825     
-0.8107621934       
-0.148908875794     
-0.810760520659     
-0.148909483118     
-0.810758489405     
-0.148908563157     
-0.810763383622     
-0.148911444378     
-0.810755518221     
-0.148907272241     
-0.810755459797     
-0.148910596018     
-0.8107600097       
-0.148910733085     
-0.810763467872     
-0.148905708529     
-0.810777576366     
-0.402538917761     
-0.911133455571     
-0.402538626284     
-0.911134493832     
-0.402543959244     
-0.911135497759     
-0.402544829548     
-0.911132082081     
-0.402538248756     
-0.911132842156     
-0.402543395819     
-0.91113697928      
-0.40254366418      
-0.911138441025     
-0.402543899289     
-0.911137186995     
-0.402546831141     
-0.911138255092     
-0.4025442011       
-0.911134588092     
-0.402550040405     
-0.911140189017     
-0.40254659486      
-0.911143839809     
-0.402548048085     
-0.911142243536     
-0.402539160874     
-0.911131407354     
-0.402551221947     
-0.911136754003     
-0.402545545436     
-0.911138146435     
-0.402546959402     
-0.91114414178      
-0.402547793806     
-0.911137593176     
-0.40254572608      
-0.911140302328     
-0.402544806458     
-0.911147123053     
-0.402547276523     
-0.911136427791     
-0.402549280981     
-0.91113756859      
-0.402549873836     
-0.911133054878     
-0.402547249218     
-0.911130914525     
-0.402539742802     
-0.911132964792     
-0.402538317018     
-0.911135205016     
-0.402539646109     
-0.911133646294     
-0.402542598036     
-0.911137695627     
-0.402537291582     
-0.911129651535     
-0.402539010192     
-0.911139785995     
-0.402542866323     
-0.911137410107     
-0.402541383963     
-0.911137783631     
-0.402537345154     
-0.911136594164     
-0.402545678123     
-0.911130999888     
-0.402542496693     
-0.911137551952     
-0.402544956834     
-0.911142256667     
-0.402542145207     
-0.911139822521     
-0.402543930962     
-0.911134923401     
-0.402544118513     
-0.91114138521      
-0.402540803508     
-0.911136044142     
-0.40254435234      
-0.911133732106     
-0.402539846855     
-0.911135425602     
-0.402542863018     
-0.911133878869     
-0.402544325164     
-0.911138246044     
-0.402541420009     
-0.911137360166     
-0.402545103609     
-0.911139937749     
-0.402540771014     
-0.911135911345     
-0.40254419689      
-0.911139242085     
-0.40254354194      
-0.911139006205     
-0.4025404179       
-0.911141748115     
-0.63688600498      
-1.00937833985      
-0.636886420817     
-1.0093810233       
-0.636882315667     
-1.00938076833      
-0.636884943191     
-1.00937653612      
-0.636886812427     
-1.00937857308      
-0.636881829333     
-1.00938297489      
-0.63688192729      
-1.00938540612      
-0.63689289699      
-1.00937812683      
-0.636884308809     
-1.00937724083      
-0.636883778888     
-1.00937602223      
-0.6368926307       
-1.00937999376      
-0.636886732857     
-1.00937717426      
-0.636882669965     
-1.00937840654      
-0.636885642598     
-1.00938199457      
-0.636881359165     
-1.00937824802      
-0.636896062519     
-1.00938819363      
-0.636896813897     
-1.00938950336      
-0.636880360027     
-1.00938021653      
-0.636893915619     
-1.00938295928      
-0.636891706094     
-1.00938287368      
-0.636889316878     
-1.0093848856       
-0.636885844511     
-1.00939430281      
-0.636881379342     
-1.00938828821      
-0.63689049306      
-1.00937760975      
-0.636884018321     
-1.0093833817       
-0.636882942076     
-1.00938507922      
-0.636882747409     
-1.00938429042      
-0.636883752792     
-1.00937909847      
-0.636885272507     
-1.00938418062      
-0.636887972903     
-1.00938291921      
-0.636888436446     
-1.00938483938      
-0.636886067291     
-1.00937765779      
-0.636884568181     
-1.00937892986      
-0.636884352445     
-1.00938078946      
-0.636886503999     
-1.00938424677      
-0.636884596321     
-1.00937563939      
-0.63688317507      
-1.00937699133      
-0.636887214778     
-1.00938047488      
-0.636886518283     
-1.00937913427      
-0.636885631533     
-1.00937931187      
-0.636885929476     
-1.00937796716      
-0.636885315303     
-1.00937778912      
-0.636886916402     
-1.00937723039      
-0.636887056475     
-1.0093737799       
-0.636884441176     
-1.00937713361      
-0.636884525613     
-1.00937994028      
-0.636885112732     
-1.0093752565       
-0.636885704686     
-1.00937689577      
-0.636886708246     
-1.00938390941      
-0.636877824137     
-1.00938803435      
-0.838829769832     
-1.09608972827      
-0.838827857846     
-1.09608882802      
-0.838827303243     
-1.09609134465      
-0.838830584702     
-1.09608490892      
-0.838832216277     
-1.09608884487      
-0.838829311109     
-1.09609379142      
-0.838835764751     
-1.09609769169      
-0.838826439905     
-1.09609624799      
-0.838829219363     
-1.09608692078      
-0.838836340603     
-1.09609028242      
-0.838830445714     
-1.0960887406       
-0.838834881104     
-1.096088585        
-0.838830666285     
-1.09608830042      
-0.838835760426     
-1.09609334579      
-0.838839457007     
-1.09608771124      
-0.838832167227     
-1.09609277109      
-0.83883015522      
-1.09609291979      
-0.838842194492     
-1.09609010496      
-0.838831571674     
-1.0960906826       
-0.838830359596     
-1.09609033952      
-0.838838894197     
-1.09609017         
-0.838839888706     
-1.09609071604      
-0.83883512684      
-1.0960893361       
-0.838832085411     
-1.0960889566       
-0.838822517539     
-1.09609029184      
-0.838828788684     
-1.09609249419      
-0.838830990247     
-1.09609141025      
-0.83883702094      
-1.09608672339      
-0.838829322692     
-1.09608751313      
-0.838833616204     
-1.09608747775      
-0.838826087634     
-1.09608769427      
-0.838826702283     
-1.09608958877      
-0.838829308562     
-1.09609193405      
-0.838830014788     
-1.09608928902      
-0.838828641371     
-1.09608975275      
-0.838828326925     
-1.09608567563      
-0.838829807096     
-1.09609058412      
-0.838827834515     
-1.09609038476      
-0.838831121158     
-1.09608589824      
-0.838829300771     
-1.09608783204      
-0.838829464633     
-1.09609206441      
-0.838828821771     
-1.09608938295      
-0.838830851291     
-1.09609204405      
-0.838825860646     
-1.09608806293      
-0.838827060495     
-1.09609141524      
-0.838829062566     
-1.09608953667      
-0.838827607096     
-1.09608694237      
-0.83882815134      
-1.09608803408      
-0.838828493199     
-1.09609476251      