# vtk DataFile Version 3.0
PyPan results file. Generated by PyPan, USU AeroLab (c) 2020.
ASCII
DATASET POLYDATA
POINTS 1202 float
-21.3197593689      -10.3317604065      39.3700790405       
-21.3197593689      -5.39737701416      39.0596389771       
-21.9382095337      -5.4362859726       39.0596389771       
-22.5468902588      -5.55240011215      39.0596389771       
-23.1362304688      -5.74388694763      39.0596389771       
-23.6969203949      -6.00772714615      39.0596389771       
-24.2201194763      -6.33975982666      39.0596389771       
-24.6975803375      -6.73474979401      39.0596389771       
-25.1217708588      -7.18646621704      39.0596389771       
-25.486000061       -7.68778514862      39.0596389771       
-25.7845191956      -8.23080158234      39.0596389771       
-26.0126399994      -8.8069524765       39.0596389771       
-26.1667404175      -9.40714836121      39.0596389771       
-26.2444095612      -10.0219297409      39.0596389771       
-26.2444095612      -10.6415901184      39.0596389771       
-26.1667404175      -11.2563695908      39.0596389771       
-26.0126399994      -11.8565702438      39.0596389771       
-25.7845191956      -12.4327201843      39.0596389771       
-25.486000061       -12.9757299423      39.0596389771       
-25.1217708588      -13.4770498276      39.0596389771       
-24.6975708008      -13.9287700653      39.0596389771       
-24.2201194763      -14.3237600327      39.0596389771       
-23.6969108582      -14.655790329       39.0596389771       
-23.1362304688      -14.9196300507      39.0596389771       
-22.5468902588      -15.1111097336      39.0596389771       
-21.9381999969      -15.227230072       39.0596389771       
-21.3197593689      -15.2661399841      39.0596389771       
-20.7013206482      -15.227230072       39.0596389771       
-20.0926303864      -15.1111097336      39.0596389771       
-19.5032901764      -14.9196195602      39.0596389771       
-18.9426002502      -14.6557798386      39.0596389771       
-18.4193992615      -14.3237495422      39.0596389771       
-17.9419403076      -13.9287595749      39.0596389771       
-17.5177497864      -13.4770402908      39.0596389771       
-17.1535301208      -12.9757204056      39.0596389771       
-16.8549995422      -12.4327096939      39.0596389771       
-16.6268901825      -11.8565597534      39.0596389771       
-16.4727802277      -11.256360054       39.0596389771       
-16.3951206207      -10.641579628       39.0596389771       
-16.3951206207      -10.0219202042      39.0596389771       
-16.4727897644      -9.40713787079      39.0596389771       
-16.6268901825      -8.80694103241      39.0596389771       
-16.855009079       -8.23079204559      39.0596389771       
-17.1535301208      -7.68777608871      39.0596389771       
-17.5177707672      -7.18645811081      39.0596389771       
-17.9419593811      -6.73474216461      39.0596389771       
-18.4194202423      -6.33975410461      39.0596389771       
-18.9426193237      -6.00772190094      39.0596389771       
-19.5033092499      -5.74388313293      39.0596389771       
-20.0926399231      -5.55239677429      39.0596389771       
-20.7013301849      -5.43628501892      39.0596389771       
-22.5468902588      -0.618020117283     38.133190155        
-21.3197593689      -0.540815412998     38.133190155        
-23.7546691895      -0.84841632843      38.133190155        
-24.9240493774      -1.22837102413      38.133190155        
-26.0365905762      -1.75188994408      38.133190155        
-27.0747394562      -2.41072010994      38.133190155        
-28.0221290588      -3.19446897507      38.133190155        
-28.8638191223      -4.09077787399      38.133190155        
-29.5865306854      -5.08551120758      38.133190155        
-30.1788692474      -6.16298007965      38.133190155        
-30.6315002441      -7.30619287491      38.133190155        
-30.9372806549      -8.49712181091      38.133190155        
-31.0913791656      -9.71698379517      38.133190155        
-31.0913791656      -10.9465398788      38.133190155        
-30.9372806549      -12.1663999557      38.133190155        
-30.6315002441      -13.3573303223      38.133190155        
-30.1788692474      -14.5005397797      38.133190155        
-29.5865192413      -15.5780096054      38.133190155        
-28.8638095856      -16.5727405548      38.133190155        
-28.0221195221      -17.4690494537      38.133190155        
-27.0747299194      -18.2527999878      38.133190155        
-26.0365791321      -18.9116306305      38.133190155        
-24.9240398407      -19.4351501465      38.133190155        
-23.7546596527      -19.8150997162      38.133190155        
-22.546880722       -20.0454902649      38.133190155        
-21.3197498322      -20.1226997375      38.133190155        
-20.0926208496      -20.0454902649      38.133190155        
-18.8848495483      -19.8150901794      38.133190155        
-17.7154693604      -19.4351406097      38.133190155        
-16.602930069       -18.9116191864      38.133190155        
-15.5647802353      -18.252790451       38.133190155        
-14.617389679       -17.469039917       38.133190155        
-13.7757101059      -16.5727291107      38.133190155        
-13.0529899597      -15.5779895782      38.133190155        
-12.460650444       -14.5005197525      38.133190155        
-12.008020401       -13.3573102951      38.133190155        
-11.7022399902      -12.1663799286      38.133190155        
-11.5481395721      -10.9465198517      38.133190155        
-11.5481395721      -9.71696281433      38.133190155        
-11.702249527       -8.49710083008      38.133190155        
-12.0080299377      -7.30617284775      38.133190155        
-12.4606599808      -6.16296100616      38.133190155        
-13.0530099869      -5.08549308777      38.133190155        
-13.7757196426      -4.09076213837      38.133190155        
-14.6174201965      -3.19445490837      38.133190155        
-15.5648097992      -2.41070699692      38.133190155        
-16.6029605865      -1.75188004971      38.133190155        
-17.7154998779      -1.22836196423      38.133190155        
-18.8848800659      -0.848410606384     38.133190155        
-20.0926494598      -0.618017196655     38.133190155        
-23.1362304688      4.04705381393       36.6053695679       
-21.3197593689      4.1613368988        36.6053695679       
-24.9240493774      3.70600891113       36.6053695679       
-26.6550292969      3.14357995987       36.6053695679       
-28.3018703461      2.36863708496       36.6053695679       
-29.8385906219      1.39340102673       36.6053695679       
-31.2409706116      0.233251601458      36.6053695679       
-32.4868888855      -1.09351396561      36.6053695679       
-33.5566902161      -2.56597304344      36.6053695679       
-34.4335098267      -4.16090297699      36.6053695679       
-35.1035194397      -5.8531498909       36.6053695679       
-35.5561408997      -7.61602878571      36.6053695679       
-35.7842597961      -9.42173576355      36.6053695679       
-35.7842597961      -11.2417898178      36.6053695679       
-35.5561408997      -13.0474996567      36.6053695679       
-35.1035118103      -14.810379982       36.6053695679       
-34.4334983826      -16.502620697       36.6053695679       
-33.556678772       -18.0975494385      36.6053695679       
-32.4868812561      -19.5700092316      36.6053695679       
-31.2409591675      -20.8967704773      36.6053695679       
-29.8385791779      -22.0569190979      36.6053695679       
-28.3018608093      -23.0321598053      36.6053695679       
-26.6550197601      -23.807100296       36.6053695679       
-24.9240398407      -24.3695297241      36.6053695679       
-23.136220932       -24.7105693817      36.6053695679       
-21.3197498322      -24.8248500824      36.6053695679       
-19.5032806396      -24.7105693817      36.6053695679       
-17.7154598236      -24.3695201874      36.6053695679       
-15.9844799042      -23.8070907593      36.6053695679       
-14.3376502991      -23.0321407318      36.6053695679       
-12.8009195328      -22.0569095612      36.6053695679       
-11.3985395432      -20.8967609406      36.6053695679       
-10.1526298523      -19.5699901581      36.6053695679       
-9.0828294754       -18.097530365       36.6053695679       
-8.20601177216      -16.5025997162      36.6053695679       
-7.53600597382      -14.8103504181      36.6053695679       
-7.08337783813      -13.0474700928      36.6053695679       
-6.85526704788      -11.2417602539      36.6053695679       
-6.85526990891      -9.4217042923       36.6053695679       
-7.08338594437      -7.61599779129      36.6053695679       
-7.53601884842      -5.85311985016      36.6053695679       
-8.20603084564      -4.16087388992      36.6053695679       
-9.08285427094      -2.56594610214      36.6053695679       
-10.1526603699      -1.09349095821      36.6053695679       
-11.3985795975      0.233272597194      36.6053695679       
-12.8009595871      1.39341902733       36.6053695679       
-14.3376903534      2.36865210533       36.6053695679       
-15.9845304489      3.1435918808        36.6053695679       
-17.7155094147      3.70601701736       36.6053695679       
-19.5033302307      4.04705810547       36.6053695679       
-23.6969203949      8.48536682129       34.5002593994       
-21.3197593689      8.63492584229       34.5002593994       
-26.0365905762      8.03905105591       34.5002593994       
-28.3018703461      7.30301904678       34.5002593994       
-30.4570407867      6.28887176514       34.5002593994       
-32.4681015015      5.01260900497       34.5002593994       
-34.3033485413      3.49435591698       34.5002593994       
-35.9338493347      1.75805795193       34.5002593994       
-37.3338699341      -0.168905302882     34.5002593994       
-38.4813308716      -2.25614309311      34.5002593994       
[...]
CELL_DATA 2400
SCALARS pressure_coefficient float 1
LOOKUP_TABLE default
-43.1739011971      
-43.1647428789      
-43.1688309076      
-43.1649798185      
-43.1641853353      
-43.1655828509      
-43.1653329572      
-43.16466694        
-43.1636559188      
-43.1651905327      
-43.1626394674      
-43.1648221378      
-43.1618509573      
-43.1645204476      
-43.1635270652      
-43.1655191843      
-43.1631960414      
-43.1622260729      
-43.1648030948      
-43.1604513444      
-43.1684418133      
-43.1615174612      
-43.1660603895      
-43.1632837743      
-43.1647616653      
-43.1648781459      
-43.1665658777      
-43.1696875877      
-43.1735158856      
-43.1717178562      
-43.1702569825      
-43.1693569834      
-43.1716195679      
-43.1716010816      
-43.1701458354      
-43.1666392939      
-43.1690918508      
-43.168435654       
-43.1676301495      
-43.1685618739      
-43.170998194       
-43.1641280153      
-43.1713992392      
-43.1708931825      
-43.1715442535      
-43.1707598529      
-43.1720540732      
-43.1675955523      
-43.169047349       
-43.163404606       
-157.005816426      
-166.66001186       
-157.021368462      
-166.656869099      
-157.008541886      
-166.658809347      
-157.003205965      
-166.648761122      
-157.007192939      
-166.648645943      
-157.011425078      
-166.651119881      
-157.00485755       
-166.653890737      
-157.008413753      
-166.645063564      
-157.005235357      
-166.652747744      
-157.003252806      
-166.649157351      
-157.015493138      
-166.653229377      
-157.011023862      
-166.655506996      
-157.009892634      
-166.652128055      
-157.006120164      
-166.645752432      
-156.997439718      
-166.657413298      
-157.009345887      
-166.648233291      
-157.024228853      
-166.669434342      
-157.009203716      
-166.651549615      
-156.983021173      
-166.638091302      
-157.001132767      
-166.650557424      
-156.993765615      
-166.657008113      
-157.018301792      
-166.655286564      
-157.002226404      
-166.655386959      
-156.992880427      
-166.655342615      
-157.006124969      
-166.65669854       
-157.001453345      
-166.648475358      
-156.997715143      
-166.647589557      
-157.007185777      
-166.664246882      
-157.025531263      
-166.673063123      
-157.025902355      
-166.657473962      
-157.001598856      
-166.646913265      
-157.012044171      
-166.650865012      
-157.024602383      
-166.672452708      
-157.024095199      
-166.656626813      
-157.015396593      
-166.646881942      
-157.000931465      
-166.654603926      
-157.001198955      
-166.647256351      
-157.021047101      
-166.656473263      
-157.003389654      
-166.658592779      
-157.003890979      
-166.655697387      
-157.010301173      
-166.650818689      
-157.009024868      
-166.661011089      
-157.007337136      
-166.643829809      
-157.011625234      
-166.659264712      
-157.015964339      
-166.642991874      
-157.021417945      
-166.653763007      
-157.013253943      
-166.663226963      
-157.014881981      
-166.654378358      
-157.011979816      
-166.648527446      
-157.013587972      
-166.64283915       
-19.0995995426      
-179.252195938      
-19.0966110851      
-179.231263436      
-19.0983986057      
-179.232738032      
-19.0978158153      
-179.238136107      
-19.0985930438      
-179.236019753      
-19.0970067645      
-179.235602999      
-19.0951572668      
-179.237635573      
-19.0957928876      
-179.232751552      
-19.0978851838      
-179.237721087      
-19.0985941944      
-179.237303211      
-19.0979473178      
-179.233046977      
-19.0985726283      
-179.241452838      
-19.100386777       
-179.234575708      
-19.0974754015      
-179.244095644      
-19.0975157528      
-179.233781701      
-19.096763073       
-179.231176958      
-19.0992492854      
-179.239042579      
-19.0983430749      
-179.233444315      
-19.0954746629      
-179.243921189      
-19.0948009278      
-179.23263771       
-19.0975090415      
-179.225945501      
-19.0980406966      
-179.240342115      
-19.0984251675      
-179.240788482      
-19.0978298147      
-179.229345519      
-19.0983473557      
-179.232612912      
-19.0986885421      
-179.241304636      
-19.0983938187      
-179.248896764      
-19.0982278123      
-179.247546564      
-19.0963166813      
-179.231064106      
-19.0973614673      
-179.233351973      
-19.0973592776      
-179.239051457      
-19.099332911       
-179.235088136      
-19.0987573849      
-179.236085818      
-19.0989911757      
-179.236588698      
-19.0969991306      
-179.237131684      
-19.0967834079      
-179.236374198      
-19.0971478651      
-179.239451829      
-19.0983916706      
-179.232671024      
-19.0982721697      
-179.237645722      
-19.0979083597      
-179.229468653      
-19.097601723       
-179.229439396      
-19.0980402451      
-179.235809715      
-19.0961926122      
-179.237385647      
-19.0977400884      
-179.230475196      
-19.0970383997      
-179.227607013      
-19.0972106762      
-179.241317002      
-19.0980834919      
-179.231326207      
-19.0965299546      
-179.231678731      
-19.0996537658      
-179.24765051       
-19.0971824611      
-179.201609218      
-0.826826997351     
-121.957215951      
-0.828222212481     
-121.933551987      
-0.827880521667     
-121.936746209      
-0.828116252161     
-121.938298478      
-0.829177185074     
-121.924825391      
-0.828773108269     
-121.930900681      
-0.827897766983     
-121.930132618      
-0.82782593366      
-121.932055483      
-0.828004859065     
-121.933151789      
-0.82848644214      
-121.932376109      
-0.828646103807     
-121.933234948      
-0.827937923599     
-121.93326316       
-0.828410663117     
-121.936305318      
-0.827863112346     
-121.932894264      
-0.82825293896      
-121.937967166      
-0.828846427798     
-121.93370836       
-0.828031657166     
-121.936259078      
-0.828305409504     
-121.932772928      
-0.828113899125     
-121.930663159      
-0.828474309167     
-121.931782756      
-0.82868983722      
-121.934712846      
-0.828193530061     
-121.931873601      
-0.828632805549     
-121.929249035      
-0.828794161507     
-121.932554066      
-0.827774430362     
-121.936237684      
-0.828064042626     
-121.930911181      
-0.8283526347       
-121.93213677       
-0.828274047705     
-121.932810265      
-0.828809385994     
-121.914929573      
-0.828329823708     
-121.942723594      
-0.828462966059     
-121.926100473      
-0.828598138293     
-121.936210199      
-0.828412093797     
-121.929061133      
-0.828658533176     
-121.935641299      
-0.827985249846     
-121.930255198      
-0.828092335433     
-121.936860788      
-0.828061601622     
-121.935481518      
-0.828199164158     
-121.925457637      
-0.82802433784      
-121.933118405      
-0.828141998462     
-121.930426676      
-0.82837753324      
-121.933601552      
-0.828259621643     
-121.934209611      
-0.828095336897     
-121.929778316      
-0.8280809881       
-121.93423755       
-0.8287162995       
-121.936696904      
-0.827925528692     
-121.933849114      
-0.828378621364     
-121.937679881      
-0.828633912248     
-121.931733407      
-0.827043686949     
-121.944417823      
-0.829701582505     
-121.900567935      
-5.95740484997      
-71.9745704023      
-5.96136717774      
-71.9655838849      
-5.96289686413      
-71.9597357663      
-5.96273964927      
-71.9595855678      
-5.96247100976      
-71.9541352149      
-5.9600336858       
-71.9683254193      
-5.96101859431      
-71.9686613292      
-5.96215146679      
-71.9636857411      
-5.96158169439      
-71.9633517882      
-5.96181482429      
-71.9651990807      
-5.9610265011       
-71.9658507258      
-5.96168099603      
-71.9670767531      
-5.96100153862      
-71.9598784653      
-5.96164329299      
-71.9672827867      
-5.96098084657      
-71.9662803058      
-5.96124008739      
-71.961752076       
-5.96162187789      
-71.9671005035      
-5.96181103777      
-71.9675372005      
-5.9627339924       
-71.9601492512      
-5.96244995652      
-71.9644769811      
-5.96177625033      
-71.9667656646      
-5.96162577427      
-71.9616282515      
-5.96194212809      
-71.9646459783      
-5.95993698423      
-71.9626208391      
-5.96147074469      
-71.9713694473      
-5.96341562989      
-71.9650046636      
-5.96088777035      
-71.9586325278      
-5.960574598        
-71.9626614096      
-5.96282030774      
-71.9681944377      
-5.95896505775      
-71.9641662001      
-5.96245377776      
-71.9653733478      
-5.95996024749      
-71.9622580436      
-5.96227902704      
-71.9643271245      
-5.96080728966      
-71.9663179032      
-5.96224313473      
-71.9632668023      
-5.96044766799      
-71.9648250044      
-5.96087549389      
-71.9571526002      
-5.96231351483      
-71.9661154037      
-5.96106663045      
-71.9654540763      
-5.96159608301      
-71.9660909378      
-5.96120560682      
-71.9634079689      
-5.96153499519      
-71.9646012228      
-5.96162937975      
-71.9624040546      
-5.96171444807      
-71.9629794355      
-5.96139005504      
-71.9615083555      
-5.96118020207      
-71.9616438539      
-5.96141487932      
-71.9602426138      
-5.96211627539      
-71.9645190065      
-5.95731169839      
-71.9700677062      
-5.96685775782      
-71.9466387729      
-5.62920801736      
-38.7334739243      
-5.62983911357      
-38.7232968166      
-5.63123062973      
-38.7190601913      
-5.62983554315      
-38.7224305011      
-5.631149395        
-38.7285515558      
-5.6290520504       
-38.7235356612      
-5.63159837692      
-38.7220225156      
-5.63006409116      
-38.7193224279      
-5.63045874673      
-38.7240519332      
-5.63081985395      
-38.7207348288      
-5.63062055856      
-38.7236192611      
-5.63063333067      
-38.7206003393      
-5.6318862787       
-38.7230909303      
-5.63064338545      
-38.7218016413      
-5.63052814687      
-38.7188767557      
-5.63089621099      
-38.7210834454      
-5.6304735509       
-38.7211614084      
-5.62954237162      
-38.7212972939      
-5.63082016433      
-38.7249544355      
-5.629808221        
-38.7209694213      
-5.6300911652       
-38.7243952454      
-5.63070869584      
-38.7220771147      
-5.63059352573      
-38.7234763133      
-5.63122111942      
-38.7232461841      
-5.63022885004      
-38.7175209583      
-5.62933928178      
-38.7216697422      
-5.63082832728      
-38.7235940431      
-5.63054285795      
-38.7252959683      
-5.63040005312      
-38.7209034517      
-5.63146339835      
-38.7230161552      
-5.63004104632      
-38.7196939811      
-5.63026412211      
-38.7222576179      
-5.63102966604      
-38.7232978901      
-5.62967549511      
-38.7234513266      
-5.63049287622      
-38.7241449356      
-5.63048462451      
-38.7196372289      
-5.63157706029      
-38.7233515838      
-5.62976253529      
-38.7223973572      
-5.63044880792      
-38.7230047823      
-5.63028311327      
-38.7215106463      
-5.63070341364      
-38.7219978157      
-5.63020582245      
-38.7221604552      
-5.63065999122      
-38.7224204583      
-5.63050526759      
-38.7229473703      
-5.6302863499       
-38.7233678642      
-5.63051317623      
-38.7237816923      
-5.63081902497      
-38.721209945       
-5.63048077614      
-38.7236762906      
-5.62755043746      
-38.7273018566      
-5.63424315793      
-38.7054566502      
-3.62235948062      
-19.5806096723      
-3.6239193768       
-19.5767240134      
-3.62473406308      
-19.5737214156      
-3.62426410131      
-19.5766029553      
-3.62292123578      
-19.5739311805      
-3.62489824022      
-19.5771857         
-3.6243582205       
-19.5735031793      
-3.62452339122      
-19.5755298428      
-3.62372711417      
-19.5753168717      
-3.62392195121      
-19.5753801472      
-3.62411255284      
-19.5761943196      
-3.62436753488      
-19.5739481591      
-3.6236123847       
-19.5769842436      
-3.62348122898      
-19.5762173454      
-3.62427636399      
-19.576624129       
-3.62412427242      
-19.5758397043      
-3.62390052943      
-19.5761473392      
-3.62487230258      
-19.5768100311      
-3.62341791316      
-19.5741386437      
-3.62508916427      
-19.574875198       
-3.62316004131      
-19.5768771132      
-3.62473746262      
-19.5759436538      
-3.62341826858      
-19.5749454972      
-3.6235447639       
-19.577039102       
-3.62462344298      
-19.5781329917      
-3.62405723268      
-19.5739284639      
-3.62481033151      
-19.5752667595      
-3.62345942603      
-19.5760049667      
-3.62433451295      
-19.5741952861      
-3.6235060204       
-19.5762325461      
-3.62434204904      
-19.5773004552      
-3.62457235098      
-19.5741488944      
-3.62370164682      
-19.5751601974      
-3.62431092712      
-19.5764862852      
-3.6238472664       
-19.5732719312      
-3.62490906093      
-19.5772757121      
-3.6237807962       
-19.5745182082      
-3.62458102322      
-19.5752593938      
-3.62425236767      
-19.5749666789      
-3.62407711405      
-19.5752808961      
-3.6241503634       
-19.5755858222      
-3.62424551335      
-19.5753762281      
-3.62431183555      
-19.5747445391      
-3.62384279562      
-19.5752928195      
-3.62437993341      
-19.5749707486      
-3.62420726193      
-19.5743688541      
-3.62467393013      
-19.5745984961      
-3.62419662554      
-19.5757464289      
-3.62169598587      
-19.5771037051      
-3.62820403268      
-19.5679486654      
-2.21386330321      
-9.70859962788      
-2.21466723928      
-9.70559176236      
-2.21519866012      
-9.70505704074      
-2.21453569528      
-9.7043824489       
-2.21558123108      
-9.70641433182      
-2.21460631443      
-9.7041614429       
-2.21494645046      
-9.70531338106      
-2.21484029255      
-9.70520579938      
-2.21462344871      
-9.70541975         
-2.21509203082      
-9.70509452967      
-2.21492138485      
-9.70451064252      
-2.21502406108      
-9.70553424806      
-2.21472881584      
-9.70500161818      
-2.21526792797      
-9.70518467216      
-2.21504789545      
-9.70421123684      
-2.21488985064      
-9.70552751298      
-2.21468926853      
-9.70555803901      
-2.21462722133      
-9.70472939195      
-2.21485511618      
-9.70533415131      
-2.21511956671      
-9.70539087262      
-2.21476132807      
-9.70595440581      
-2.21525879843      
-9.70476855467      
-2.21516359853      
-9.70493138784      
-2.21494085053      
-9.70462651765      
-2.214835356        
-9.70492747366      
-2.21549231229      
-9.70482093885      
-2.21443225492      
-9.70623985583      
-2.21508113184      
-9.70531442798      
-2.21524006605      
-9.70503457561      
-2.2148695221       
-9.70553909154      
-2.21459127601      
-9.70442206152      
-2.21525671591      
-9.70514535556      
-2.21497597703      
-9.70623225903      
-2.21451084689      
-9.70539302795      
-2.2153133215       
-9.7055338731       
-2.21431724006      
-9.70469002742      
-2.21524019997      
-9.70597803078      
-2.2147550068       
-9.70524591709      
-2.21480462699      
-9.70555003842      
-2.2149598915       
-9.70534765729      
-2.21496123425      
-9.70490937608      
-2.21487678113      
-9.70532679461      
-2.21481895752      
-9.70564067496      
-2.21485100098      
-9.70521607863      
-2.21507540773      
-9.705066641        
-2.2148639607       
-9.70516793177      
-2.21485947275      
-9.70534373714      
-2.21468820646      
-9.70538743397      
-2.21403138894      
-9.7069287794       
-2.21688893345      
-9.69981452205      
-1.69688096523      
-5.1236684976       
-1.69737776467      
-5.12197346872      
-1.69738227402      
-5.12122044907      
-1.69773650471      
-5.1218835581       
-1.69710850728      
-5.12146724173      
-1.69751422035      
-5.12207864756      
-1.69750430698      
-5.12160817379      
-1.69745731543      
-5.12136985969      
-1.69746344194      
-5.12168110601      
-1.69755312923      
-5.12141756716      
-1.69751400911      
-5.12186218294      
-1.69740584994      
-5.12182029816      
-1.69756036017      
-5.12146954889      
-1.69740988774      
-5.12208496168      
-1.69765035447      
-5.12140822945      
-1.69729467311      
-5.12181347129      
-1.69751206404      
-5.12122305062      
-1.69757057718      
-5.12162761112      
-1.69747930675      
-5.12202980698      
-1.6976199288       
-5.12157369792      
-1.69729682738      
-5.12115697145      
-1.69746919912      
-5.12191360731      
-1.69739819424      
-5.12175954532      
-1.69744384452      
-5.12180000703      
-1.69738360708      
-5.12160879274      
-1.69753909554      
-5.12137807736      
-1.6972668701       
-5.12192059321      
-1.69745925815      
-5.12150587553      
-1.69727501846      
-5.12204236752      
-1.69730821037      
-5.12181783624      
-1.69761409364      
-5.12181654734      
-1.69747285508      
-5.12152231437      
-1.69737232222      
-5.12174798942      
-1.69738465519      
-5.12180039078      
-1.6974264873       
-5.12110786622      
-1.6976843482       
-5.12177435667      
-1.69739425936      
-5.12172354633      
-1.69743395179      
-5.12144927714      
-1.69746031432      
-5.12161463965      
-1.69748062188      
-5.12161344864      
-1.69749619669      
-5.12153584647      
-1.69744707521      
-5.12180047133      
-1.69745270936      
-5.12132350372      
-1.69757382754      
-5.12135080698      
-1.6974573306       
-5.1216816271       
-1.69748393366      
-5.12159167468      
-1.69739756315      
-5.12173472596      
-1.69752694142      
-5.12147104097      
-1.69677487958      
-5.12261374406      
-1.69858538466      
-5.1190335636       
-1.73746754211      
-3.24476874416      
-1.73774678929      
-3.24386101123      
-1.73789484856      
-3.2436836748       
-1.73772504853      
-3.24369068442      
-1.73783552432      
-3.24402617734      
-1.73772385016      
-3.24364900388      
-1.73782027493      
-3.24355996516      
-1.73773656995      
-3.24388434398      
-1.73781223676      
-3.24374988641      
-1.73778794716      
-3.24377528759      
-1.73775593342      
-3.24394090056      
-1.73780283225      
-3.24370293468      
-1.73784352394      
-3.24364831933      
-1.73772824622      
-3.24387383373      
-1.73781942554      
-3.24378203722      
-1.7377550767       
-3.24373080741      
-1.73787540849      
-3.24387886469      
-1.73783318607      
-3.24379135984      
-1.7377269557       
-3.24381788247      
-1.73776050855      
-3.24360654481      
-1.73790735683      
-3.24397531149      
-1.73774258393      
-3.24359810397      
-1.73779085781      
-3.24390575715      
-1.73782102664      
-3.24372902021      
-1.73779285512      
-3.2435617404       
-1.73777136268      
-3.24398062837      
-1.73776734505      
-3.24375544149      
-1.73785386644      
-3.24378993142      
-1.73779091765      
-3.24357949828      
-1.73785921429      
-3.24394164088      
-1.73777874637      
-3.24342470704      
-1.73777329687      
-3.24412006795      
-1.7377496473       
-3.24362951081      
-1.73771315995      
-3.24407937025      
-1.73796433592      
-3.24349725472      
-1.73770157926      
-3.24384726663      
-1.73770447108      
-3.24389478346      
-1.73784950799      
-3.24366571694      
-1.73779648991      
-3.24377563527      
-1.73776426574      
-3.24369643357      
-1.73780982186      
-3.24384071655      
-1.73770314351      
-3.24373860106      
-1.73782185919      
-3.24375613691      
-1.73774603647      
-3.24389555745      
-1.73771921424      
-3.2438680308       
-1.73779387937      
-3.24377979316      
-1.73773738768      
-3.24389046391      
-1.7378226051       
-3.24358905117      
-1.73744366854      
-3.2443549645       