# vtk DataFile Version 3.0
PyPan results file. Generated by PyPan, USU AeroLab (c) 2020.
ASCII
DATASET POLYDATA
POINTS 1202 float
-60.5346183777      -12.7989702225      -2.47207999229      
-60.5346183777      -12.7989702225      2.47205805779       
-60.5346183777      -7.86458778381      -2.47207999229      
-60.5346183777      -7.86458778381      2.47205805779       
-59.916179657       -17.6944408417      -2.47207999229      
-59.916179657       -17.6944408417      2.47205805779       
-59.916179657       -12.7600603104      7.37721014023       
-59.916179657       -7.90349721909      -7.37723112106      
-59.916179657       -7.90349721909      7.37721014023       
-59.916179657       -2.96911501884      -2.47207999229      
-59.916179657       -2.96911501884      2.47205805779       
-59.9161682129      -12.7600603104      -7.37723112106      
-59.3074989319      -3.08522796631      7.37721014023       
-59.3074913025      -17.5783290863      7.37721014023       
-59.3074913025      -3.08523011208      -7.37723112106      
-59.3074798584      -17.5783290863      -7.37723112106      
-58.6890602112      1.81024503708       -2.47207999229      
-58.6890602112      1.81024503708       2.47205805779       
-58.6890487671      -12.682849884       12.1660203934       
-58.6890487671      -7.98070001602      12.1660203934       
-58.6890411377      -22.4738006592      -2.47207999229      
-58.6890411377      -22.4738006592      2.47205805779       
-58.6890411377      -12.682849884       -12.1660404205      
-58.6890411377      -7.9807009697       -12.1660404205      
-58.0997200012      -3.31562399864      12.1660203934       
-58.0997200012      1.61875796318       7.37721014023       
-58.0997085571      -17.3479309082      12.1660203934       
-58.0997085571      -3.31562495232      -12.1660404205      
-58.0997085571      1.61875605583       -7.37723112106      
-58.0997009277      -22.2823104858      -7.37723112106      
-58.0997009277      -22.2823104858      7.37721014023       
-58.0997009277      -17.3479309082      -12.1660404205      
-56.9303398132      1.23880195618       -12.1660404205      
-56.9303398132      1.23880505562       12.1660203934       
-56.9303283691      -21.9023609161      12.1660203934       
-56.9303207397      -21.9023609161      -12.1660404205      
-56.8725891113      -8.09498214722      16.762960434        
-56.8725891113      6.39811706543       -2.47207999229      
-56.8725891113      6.39811706543       2.47205805779       
-56.8725814819      -12.568570137       16.762960434        
-56.8725700378      -27.0616703033      -2.47207999229      
-56.8725700378      -27.0616703033      2.47205805779       
-56.8725700378      -12.568570137       -16.7629795074      
-56.8725700378      -8.09498214722      -16.7629795074      
-56.3119010925      -3.65666699409      16.762960434        
-56.3119010925      6.13427686691       7.37721014023       
-56.3118896484      -17.0068893433      16.762960434        
-56.3118896484      -3.65667009354      -16.7629795074      
-56.3118896484      6.13427495956       -7.37723112106      
-56.3118782043      -26.7978305817      -7.37723112106      
-56.3118782043      -26.7978305817      7.37721014023       
-56.3118782043      -17.0068798065      -16.7629795074      
-55.1993598938      0.676377296448      16.762960434        
-55.1993598938      5.61075496674       -12.1660404205      
-55.1993598938      5.61075782776       12.1660203934       
-55.1993484497      -26.2743091583      12.1660203934       
-55.1993484497      -21.3399295807      16.762960434        
-55.1993484497      0.67637348175       -16.7629795074      
-55.1993408203      -26.2743091583      -12.1660404205      
-55.1993408203      -21.3399200439      -16.7629795074      
-54.4954299927      -8.24453830719      21.095539093        
-54.4954299927      10.7221498489       -2.47207999229      
-54.4954299927      10.7221498489       2.47205805779       
-54.4954185486      -12.4190101624      21.095539093        
-54.4954185486      -8.24453926086      -21.0955505371      
-54.4954109192      -31.3857002258      -2.47207999229      
-54.4954109192      -31.3857002258      2.47205805779       
-54.4954109192      -12.4190101624      -21.0955505371      
-53.972240448       10.3901195526       7.37721014023       
-53.9722290039      -4.10298204422      21.095539093        
-53.9722290039      10.3901100159       -7.37723112106      
-53.9722213745      -16.5605697632      21.095539093        
-53.9722213745      -4.10298299789      -21.0955505371      
-53.9722099304      -31.0536708832      7.37721014023       
-53.9722099304      -31.0536594391      -7.37723112106      
-53.9722099304      -16.5605697632      -21.0955505371      
-53.5525283813      4.83581590652       16.762960434        
-53.552520752       4.83581209183       -16.7629795074      
-53.5525093079      -25.499370575       16.762960434        
-53.5525016785      -25.4993591309      -16.7629795074      
-52.9340896606      9.73128700256       12.1660203934       
-52.9340782166      -0.0596571005881    21.095539093        
-52.9340782166      9.73128318787       -12.1660404205      
-52.9340705872      -20.6038894653      21.095539093        
-52.9340705872      -0.0596590004861    -21.0955505371      
-52.9340591431      -30.3948402405      12.1660203934       
-52.9340591431      -30.3948307037      -12.1660404205      
-52.9340591431      -20.6038894653      -21.0955505371      
-51.5950813293      14.7141504288       -2.47207999229      
-51.5950813293      14.7141504288       2.47205805779       
-51.5950698853      -12.2365398407      25.0954303741       
-51.5950698853      -8.42701053619      25.0954303741       
-51.5950584412      -8.42701244354      -25.0954494476      
-51.5950508118      -35.3777008057      -2.47207999229      
-51.5950508118      -35.3777008057      2.47205805779       
-51.5950508118      -12.236530304       -25.0954494476      
-51.3973617554      3.82167100906       21.095539093        
-51.3973617554      8.75605201721       16.762960434        
-51.3973503113      3.82166790962       -21.0955505371      
-51.3973503113      8.75604629517       -16.7629795074      
-51.3973388672      -29.4195995331      16.762960434        
-51.3973388672      -24.4852199554      21.095539093        
-51.3973388672      -24.4852104187      -21.0955505371      
-51.3973312378      -29.4195899963      -16.7629795074      
-51.1176185608      14.3191604614       7.37721014023       
-51.1176109314      -16.0160198212      25.0954303741       
-51.1176109314      -4.64752817154      25.0954303741       
-51.1176109314      14.319149971        -7.37723112106      
-51.1175994873      -16.0160198212      -25.0954494476      
-51.1175994873      -4.64753007889      -25.0954494476      
-51.1175918579      -34.982711792       7.37721014023       
-51.1175804138      -34.9827003479      -7.37723112106      
-50.1702308655      -0.957686424255     25.0954303741       
-50.1702308655      13.5354099274       12.1660203934       
-50.1702194214      -19.7058601379      25.0954303741       
-50.1702194214      -0.957690179348     -25.0954494476      
-50.1702194214      13.5354099274       -12.1660404205      
-50.1702003479      -34.1989593506      12.1660203934       
-50.1702003479      -34.1989517212      -12.1660404205      
-50.1702003479      -19.7058601379      -25.0954494476      
-49.3862915039      7.47979021072       21.095539093        
-49.3862800598      7.47978591919       -21.0955505371      
-49.3862686157      -28.1433391571      21.095539093        
-49.3862609863      -28.1433296204      -21.0955505371      
-48.7678489685      2.58431911469       25.0954303741       
-48.7678489685      12.3752603531       -16.7629795074      
-48.7678489685      12.3752603531       16.762960434        
-48.7678413391      2.58431410789       -25.0954494476      
-48.767829895       -33.03881073        16.762960434        
-48.767829895       -23.2478599548      25.0954303741       
-48.7678184509      -23.2478599548      -25.0954494476      
-48.7678108215      -33.0387992859      -16.7629795074      
-48.2172584534      -8.63952445984      28.6995506287       
-48.2172584534      18.3111591339       -2.47207999229      
-48.2172584534      18.3111591339       2.47205805779       
-48.217250824       -12.024020195       28.6995506287       
-48.217250824       -8.63952541351      -28.6995697021      
-48.2172393799      -12.024020195       -28.6995697021      
-48.2172317505      -38.9747009277      -2.47207999229      
-48.2172317505      -38.9747009277      2.47205805779       
-47.7930793762      17.8594398499       7.37721014023       
-47.7930717468      -5.28171682358      28.6995506287       
-47.7930717468      17.8594398499       -7.37723112106      
-47.7930603027      -15.3818302155      28.6995506287       
-47.7930603027      -5.28171920776      -28.6995697021      
-47.7930488586      -38.5229911804      7.37721014023       
-47.7930488586      -15.381819725       -28.6995697021      
-47.7930412292      -38.5229797363      -7.37723112106      
-46.9513893127      16.9631309509       12.1660203934       
-46.9513816833      -2.00355100632      28.6995506287       
-46.9513816833      16.9631309509       -12.1660404205      
-46.9513702393      -18.6599903107      28.6995506287       
-46.9513702393      -2.00355505943      -28.6995697021      
-46.9513587952      -18.6599903107      -28.6995697021      
-46.9513511658      -37.6266784668      12.1660203934       
-46.9513511658      -37.6266708374      -12.1660404205      
-46.932598114       5.92262983322       25.0954303741       
-46.932598114       10.8570098877       21.095539093        
-46.9325904846      5.92262506485       -25.0954494476      
-46.9325904846      10.8570098877       -21.0955505371      
-46.9325790405      -26.5861701965      25.0954303741       
[...]
CELL_DATA 2400
SCALARS pressure_coefficient float 1
LOOKUP_TABLE default
0.987743919032      
0.987743917181      
0.987743921136      
0.98774392799       
0.987743918062      
0.987743924991      
0.987743918272      
0.987743895915      
0.98774388474       
0.987743886923      
0.987743860365      
0.987743877174      
0.98774386569       
0.987743873962      
0.987743887894      
0.987743874946      
0.987743888434      
0.987743853446      
0.987743861614      
0.987743931717      
0.987743895642      
0.987743862395      
0.987743844351      
0.987743858958      
0.987743870159      
0.987743879416      
0.987743898031      
0.98774389222       
0.987743949618      
0.987743934712      
0.987743959282      
0.987743870178      
0.987743951214      
0.98774395606       
0.987743955497      
0.987743890664      
0.987743975623      
0.987743964817      
0.987743900769      
0.987743990641      
0.987743997153      
0.987743935921      
0.987744011282      
0.987743988293      
0.987743976269      
0.98774389908       
0.987743921127      
0.987743921705      
0.987743922165      
0.987743931391      
0.928001954023      
0.918500553665      
0.92800202518       
0.918500500833      
0.928001821291      
0.91850069167       
0.92800197636       
0.918500460039      
0.928002114642      
0.918500840101      
0.928001906579      
0.918500269533      
0.928001985422      
0.918500761968      
0.92800153539       
0.918500612876      
0.928002075091      
0.918500456408      
0.928001575891      
0.91850071085       
0.928002076402      
0.918500240211      
0.928001741979      
0.918500152963      
0.928001903982      
0.918500395038      
0.928001562609      
0.918500035267      
0.928002093573      
0.918500604308      
0.92800225482       
0.918500174898      
0.928001889929      
0.918500546006      
0.928001515949      
0.918500698983      
0.928001747563      
0.918500378479      
0.92800198126       
0.918500743755      
0.928001862753      
0.918500939175      
0.92800173998       
0.91850090153       
0.928001943676      
0.918500462828      
0.92800185135       
0.918500375779      
0.928001808296      
0.918500747353      
0.928002133182      
0.918500502078      
0.928002067673      
0.918500883914      
0.928001936968      
0.918500752739      
0.92800202023       
0.918500894959      
0.928001501456      
0.91850027987       
0.92800204236       
0.918500563139      
0.928001888234      
0.918500702967      
0.928002059514      
0.918500315136      
0.928001873918      
0.918500841916      
0.928001749409      
0.918500129773      
0.928001806572      
0.918500779498      
0.928001798898      
0.918500542213      
0.928002111441      
0.918500554304      
0.928001852297      
0.918500294948      
0.928002144961      
0.918500662681      
0.928001877004      
0.918500254776      
0.928001975887      
0.91850070302       
0.928001930149      
0.918500812197      
0.92800203136       
0.918500514698      
0.928001803854      
0.9185004647        
0.928002009424      
0.918500290045      
0.92800209152       
0.918500726067      
0.928001832482      
0.918500759471      
0.928002033205      
0.918500513194      
0.928001926182      
0.918500607897      
0.812540646311      
0.791221290386      
0.812541611089      
0.791222489904      
0.812541135852      
0.791221752502      
0.812540458147      
0.791222094471      
0.812541275694      
0.791222208355      
0.812540561086      
0.791222387375      
0.812541150171      
0.791222374836      
0.812540960602      
0.791221520934      
0.812541349161      
0.791221614209      
0.812540665272      
0.791221993483      
0.812540829373      
0.79122221812       
0.812540920924      
0.791221992268      
0.812541542707      
0.791221801128      
0.812540681073      
0.791221424544      
0.812540455768      
0.791221716581      
0.812540917389      
0.791222083814      
0.812541701805      
0.791222075347      
0.812541246764      
0.791221480389      
0.812541188762      
0.791223250156      
0.812540430882      
0.7912220632        
0.812541244338      
0.791221548909      
0.812540745574      
0.791221763046      
0.812540903017      
0.791222293641      
0.812540719275      
0.791222005975      
0.812541424048      
0.791221124525      
0.812541431528      
0.791221579401      
0.812541265453      
0.791222072545      
0.812541137428      
0.791222331325      
0.812540879703      
0.791222306244      
0.812541185336      
0.791221976957      
0.812540719852      
0.791222080264      
0.812541699042      
0.791222296781      
0.812541310331      
0.791221743287      
0.812541352242      
0.791222269969      
0.812540581623      
0.7912219155        
0.812541207275      
0.791222535085      
0.812540983965      
0.791222254622      
0.812541017724      
0.791220908667      
0.812540327847      
0.791222160238      
0.812540943818      
0.791221880336      
0.812540203801      
0.791221789853      
0.812541365198      
0.791221981811      
0.812541198754      
0.791222060415      
0.812540868607      
0.791221826338      
0.812540937355      
0.791221176528      
0.812541431096      
0.791222893445      
0.81254159206       
0.791221688901      
0.812540981925      
0.791222716151      
0.812540958352      
0.791222873056      
0.812540553523      
0.791221398614      
0.635883535957      
0.607677667257      
0.635883703858      
0.607677123756      
0.63588396124       
0.607678132506      
0.635884472264      
0.607678797982      
0.635884042202      
0.607676992925      
0.635884145959      
0.607677712829      
0.635882794787      
0.60767584224       
0.635883265839      
0.607676425266      
0.635883114175      
0.607677289942      
0.635883524855      
0.607675949503      
0.635883548373      
0.607678219612      
0.635883628313      
0.60767758232       
0.6358835184        
0.607676322023      
0.635884635652      
0.607678954184      
0.63588405751       
0.607676905312      
0.635883805962      
0.607678228613      
0.635883880759      
0.607677703233      
0.635884478253      
0.607678087569      
0.635883606935      
0.607678539868      
0.635882421499      
0.607678429014      
0.635882874869      
0.607678323985      
0.635882926542      
0.607674545192      
0.635883713581      
0.607676443605      
0.635883713266      
0.607676547219      
0.635883151289      
0.607676066334      
0.635881570029      
0.607678315971      
0.635884105065      
0.60767671276       
0.635883967938      
0.607676307489      
0.635883994699      
0.607674114943      
0.635884570602      
0.607679455549      
0.635883547857      
0.607675853651      
0.635884944748      
0.607676550267      
0.635883801364      
0.607678127438      
0.635884230831      
0.607677363413      
0.63588365976       
0.607677592363      
0.635884375976      
0.607677225255      
0.635883772726      
0.607676051798      
0.635883900096      
0.607677635463      
0.635884386248      
0.60767747725       
0.63588395073       
0.607676956265      
0.635884251903      
0.607677310085      
0.635884714454      
0.607678210224      
0.63588405672       
0.607677026177      
0.635883746581      
0.607677834178      
0.635884323618      
0.607678342399      
0.635884528085      
0.607676625045      
0.63588517655       
0.607678009217      
0.635884420485      
0.607678796985      
0.63588531071       
0.607677225469      
0.635883979532      
0.607677915365      
0.413752645886      
0.380146390195      
0.413753712709      
0.380144264081      
0.413751348228      
0.380146100121      
0.413753019785      
0.380144264805      
0.41375166038       
0.380145391362      
0.413752894157      
0.380144351458      
0.413756123779      
0.380148599535      
0.413751505915      
0.380144041485      
0.413753089858      
0.380142746975      
0.413750688569      
0.380146221982      
0.413753939487      
0.380144649985      
0.413753518393      
0.380148714451      
0.41375049824       
0.380146164494      
0.413755384376      
0.380146318347      
0.413752224394      
0.380146524627      
0.413752253351      
0.380141560967      
0.413752107899      
0.380145613796      
0.413754065777      
0.380145734583      
0.413753103788      
0.380146449631      
0.413750333255      
0.380142895081      
0.413751698849      
0.380146057043      
0.413750910874      
0.380143483777      
0.413754269608      
0.380146032244      
0.41375155529       
0.380144165057      
0.413751316064      
0.380145349597      
0.413753817538      
0.380144935028      
0.413752477447      
0.380142686326      
0.41375248684       
0.380141940646      
0.413751548915      
0.38014598296       
0.413751204651      
0.380146699222      
0.413754198009      
0.380145678373      
0.41375271244       
0.38014431971       
0.413754082703      
0.380145497913      
0.41375270666       
0.380146718455      
0.413753373582      
0.380144825757      
0.413752866692      
0.380146249188      
0.413753206725      
0.380143334819      
0.41375213063       
0.380146126083      
0.413755092369      
0.380146989806      
0.413753341521      
0.380146220877      
0.41375291358       
0.38014690097       
0.413753210868      
0.380146580078      
0.413751798008      
0.380146115562      
0.413752899573      
0.380146708567      
0.413753211014      
0.380145089533      
0.413752068165      
0.380145523194      
0.413753145234      
0.380144640759      
0.413753449405      
0.38014564781       
0.413751447723      
0.380144381967      
0.413751514553      
0.380145828103      
0.16028119943       
0.123142246623      
0.160280792302      
0.123143425107      
0.160280551913      
0.123140917934      
0.160277836917      
0.123141889224      
0.160282494612      
0.12314248546       
0.160279941987      
0.123143733609      
0.16027942536       
0.123148572775      
0.160278517192      
0.12313843583       
0.160281700714      
0.12313627608       
0.160279379231      
0.123139969834      
0.160281845117      
0.123138822075      
0.160280371092      
0.12313910562       
0.160282590846      
0.12313983058       
0.160279333401      
0.123138381991      
0.160279884422      
0.123142028789      
0.160277137707      
0.123141041018      
0.160280268985      
0.123134425238      
0.16028080203       
0.123139683448      
0.160284695387      
0.123138655881      
0.160281524846      
0.123139711484      
0.1602796397        
0.12313813004       
0.160280743956      
0.123142167756      
0.160281086154      
0.123141214901      
0.16027689176       
0.123140783952      
0.160281727706      
0.123139404361      
0.160283408427      
0.123135879438      
0.160279637885      
0.123144478429      
0.160279783083      
0.123141027524      
0.160279554884      
0.123140206036      
0.160282370806      
0.12314158785       
0.160280521582      
0.123137752489      
0.160282385646      
0.123142508127      
0.160280659224      
0.123138485301      
0.16028219055       
0.12314312113       
0.160281381669      
0.123140012411      
0.160281029977      
0.123140620173      
0.160279623287      
0.123141633724      
0.160282899107      
0.123143866303      
0.160280683385      
0.123143366799      
0.16028080149       
0.123141402773      
0.16028115856       
0.123140800417      
0.160280484617      
0.123141186807      
0.160281690873      
0.123141578517      
0.160280286058      
0.123141948747      
0.160279835586      
0.123142586358      
0.160281651179      
0.123144012972      
0.160280282478      
0.123142815553      
0.160282465608      
0.123142823336      
0.160280864625      
0.123140274528      
0.160280975155      
0.123140050769      
-0.108332806401     
-0.146781659726     
-0.10833313625      
-0.146780795265     
-0.108335564545     
-0.146781240915     
-0.108333815705     
-0.146780876157     
-0.108330292411     
-0.146780491234     
-0.108328264552     
-0.146778682817     
-0.108331920539     
-0.146781819718     
-0.108334294327     
-0.14678067112      
-0.108337665113     
-0.146784214769     
-0.108339032684     
-0.146783655786     
-0.108335568598     
-0.146781581731     
-0.108336096848     
-0.146781328332     
-0.108329598926     
-0.146781848475     
-0.108334194928     
-0.146773678332     
-0.108332306251     
-0.146775943626     
-0.108325113635     
-0.146780952384     
-0.108334016357     
-0.146779242265     
-0.108329841927     
-0.146781469539     
-0.10832993874      
-0.146788774941     
-0.108330790965     
-0.146778378054     
-0.108335553598     
-0.146780541522     
-0.108327875175     
-0.146778203389     
-0.108329351779     
-0.146783270768     
-0.10833224768      
-0.146783754785     
-0.108335786465     
-0.146774372063     
-0.108333601257     
-0.146780683997     
-0.10833282562      
-0.146784736278     
-0.108332537076     
-0.146777044051     
-0.108332188151     
-0.146783598712     
-0.108330378207     
-0.146781532034     
-0.10833336932      
-0.146781951998     
-0.108335195697     
-0.14678159474      
-0.108331391937     
-0.14677664965      
-0.108332599147     
-0.14678140426      
-0.108328492735     
-0.14678282169      
-0.108333783563     
-0.14678018086      
-0.108333701582     
-0.146778609584     
-0.108333182823     
-0.146781401821     
-0.108331609865     
-0.146778598709     
-0.108331486502     
-0.146779209807     
-0.108332622385     
-0.146779627418     
-0.108333754629     
-0.14677948939      
-0.10833088457      
-0.146780506072     
-0.108331124973     
-0.146781384106     
-0.108331986059     
-0.146777863482     
-0.108335891314     
-0.146781112508     
-0.108331426003     
-0.146780223978     
-0.108334307877     
-0.146777940118     
-0.108331507244     
-0.146780229059     
-0.108333260555     
-0.146776090021     
-0.374893110432     
-0.412181328312     
-0.374890986973     
-0.412178284266     
-0.374898153479     
-0.412179380132     
-0.374897800299     
-0.412182214037     
-0.374892519168     
-0.412179146714     
-0.374895424678     
-0.412176335172     
-0.374896260386     
-0.412178051459     
-0.374895737843     
-0.412179853494     
-0.374898098978     
-0.412183568        
-0.374897962287     
-0.412186592905     
-0.374903025884     
-0.412178337613     
-0.37489910531      
-0.41217651013      
-0.374901460373     
-0.412177901328     
-0.374892553396     
-0.412182994368     
-0.37490526039      
-0.412178129265     
-0.374897289773     
-0.412184065765     
-0.374898816235     
-0.412181390706     
-0.374900367179     
-0.412184713799     
-0.37489789465      
-0.41218341613      
-0.37489911268      
-0.412172012279     
-0.374900655197     
-0.412182857775     
-0.374903343203     
-0.41218354781      
-0.374904090529     
-0.412184760058     
-0.374901398682     
-0.412180077297     
-0.374891809493     
-0.4121854006       
-0.374892447455     
-0.412184133559     
-0.374891475635     
-0.412175715334     
-0.374896368985     
-0.412173603973     
-0.374890580609     
-0.412179011382     
-0.37489096964      
-0.412180563379     
-0.374893616286     
-0.412183122639     
-0.374893966863     
-0.412182266844     
-0.374890769811     
-0.412174715765     
-0.374899378178     
-0.412179337866     
-0.374894773453     
-0.412179091247     
-0.374895646629     
-0.412178390275     
-0.37489624607      
-0.412173232872     
-0.374896377226     
-0.412179727116     
-0.37489651767      
-0.412176807708     
-0.374894164851     
-0.412175824398     
-0.374898322514     
-0.412175267788     
-0.374892774337     
-0.412176761945     
-0.374895398281     
-0.412178991548     
-0.374897534415     
-0.412175803273     
-0.374894436385     
-0.41217655133      
-0.374897885268     
-0.412176842353     
-0.374893233668     
-0.412180546892     
-0.374896942606     
-0.412177422227     
-0.374898210533     
-0.412178429784     
-0.374897451001     
-0.412176407749     
-0.622354045418     
-0.655948240055     
-0.622353905349     
-0.655942669131     
-0.622348737132     
-0.655942406555     
-0.622354177056     
-0.655944971763     
-0.622353671497     
-0.655946937738     
-0.62234899327      
-0.655950568973     
-0.622349319959     
-0.655944887597     
-0.622360750033     
-0.655949614398     
-0.622352212801     
-0.655942993279     
-0.622352074875     
-0.655946471566     
-0.622361012327     
-0.655939064999     
-0.622354918328     
-0.655945502066     
-0.622350177805     
-0.655954880398     
-0.62235366429      
-0.655942719333     
-0.622349069085     
-0.655949566326     
-0.622362593717     
-0.655949217522     
-0.622364476263     
-0.655953423183     
-0.622347166711     
-0.655948135367     
-0.622363008215     
-0.655944627046     
-0.622360041295     
-0.655951018633     
-0.622354773714     
-0.655960043997     
-0.622351790923     
-0.655950674562     
-0.622347926754     
-0.655955053131     
-0.622358479794     
-0.65594313077      
-0.622351005119     
-0.655947953927     
-0.622349263304     
-0.655953673473     
-0.622348903293     
-0.655946030761     
-0.622350224484     
-0.655942863725     
-0.62235165664      
-0.655947415063     
-0.622354035923     
-0.655948619433     
-0.622356085017     
-0.655946460789     
-0.622353970896     
-0.655942372293     
-0.622351601711     
-0.655950908432     
-0.622351415628     
-0.655943977621     
-0.622353360539     
-0.655944020889     
-0.622352694765     
-0.655949305346     
-0.622351121654     
-0.655945811645     
-0.622354479407     
-0.655945130814     
-0.622353567201     
-0.655949179544     
-0.622353768122     
-0.655946462899     
-0.622353889765     
-0.655945493992     
-0.622353133417     
-0.655945109518     
-0.622354915265     
-0.655944219203     
-0.622355519234     
-0.655947413276     
-0.622352016985     
-0.655947385161     
-0.622352205111     
-0.655947227463     
-0.622353148585     
-0.655947788312     
-0.622353104607     
-0.655944873074     
-0.622354034221     
-0.655946970807     
-0.622347913748     
-0.655945967214     
-0.834876229932     
-0.862428849656     
-0.834873590695     
-0.862435395898     
-0.834873691776     
-0.862431111924     
-0.834876462769     
-0.86242959392      
-0.834878108689     
-0.862425493079     
-0.8348746018       
-0.862438801536     
-0.83488115819      
-0.862439858002     
-0.834872276151     
-0.862440925489     
-0.834875578354     
-0.862424691447     
-0.834882517856     
-0.86243844901      
-0.834876385224     
-0.862429597388     
-0.834881159175     
-0.862435092767     
-0.834876376203     
-0.862430308437     
-0.834881161666     
-0.862430523674     
-0.834885063868     
-0.862431280378     
-0.834877597484     
-0.862428034896     
-0.834876699297     
-0.862446766557     
-0.834889357015     
-0.862438972304     
-0.834877504827     
-0.862437514524     
-0.834875532409     
-0.862428640277     
-0.834886000512     
-0.86243436797      
-0.834885484092     
-0.862439125488     
-0.834881714173     
-0.862432071216     
-0.834878775661     
-0.862441632653     
-0.83486779348      
-0.862430143822     
-0.8348740753       
-0.862432129975     
-0.834876879229     
-0.862427161074     
-0.834883575574     
-0.862435135099     
-0.834875063195     
-0.862434028679     
-0.834880259321     
-0.862431916346     
-0.834871258826     
-0.862431566246     
-0.834872958874     
-0.862430849274     
-0.834874585149     
-0.86243517928      
-0.834875672799     
-0.862430106767     
-0.834875504034     
-0.862432754617     
-0.834874133251     
-0.862433647797     
-0.83487511399      
-0.862431547473     
-0.834873899846     
-0.862431412481     
-0.834877549094     
-0.862431901266     
-0.834874972344     
-0.862435151759     
-0.834875530215     
-0.862429982103     
-0.834874094998     
-0.86243380122      
-0.834876645997     
-0.862430016088     
-0.834871492975     
-0.862429143106     
-0.834872571576     
-0.862429501127     
-0.834874898802     
-0.862430375031     
-0.834873318653     
-0.862429006946     
-0.834873829133     
-0.862429554184     
-0.83487447072      
-0.862433772192     