# vtk DataFile Version 3.0
PyPan results file. Generated by PyPan, USU AeroLab (c) 2020.
ASCII
DATASET POLYDATA
POINTS 1202 float
-60.5346183777      -12.7989702225      -2.47207999229      
-60.5346183777      -12.7989702225      2.47205805779       
-60.5346183777      -7.86458778381      -2.47207999229      
-60.5346183777      -7.86458778381      2.47205805779       
-59.916179657       -17.6944408417      -2.47207999229      
-59.916179657       -17.6944408417      2.47205805779       
-59.916179657       -12.7600603104      7.37721014023       
-59.916179657       -7.90349721909      -7.37723112106      
-59.916179657       -7.90349721909      7.37721014023       
-59.916179657       -2.96911501884      -2.47207999229      
-59.916179657       -2.96911501884      2.47205805779       
-59.9161682129      -12.7600603104      -7.37723112106      
-59.3074989319      -3.08522796631      7.37721014023       
-59.3074913025      -17.5783290863      7.37721014023       
-59.3074913025      -3.08523011208      -7.37723112106      
-59.3074798584      -17.5783290863      -7.37723112106      
-58.6890602112      1.81024503708       -2.47207999229      
-58.6890602112      1.81024503708       2.47205805779       
-58.6890487671      -12.682849884       12.1660203934       
-58.6890487671      -7.98070001602      12.1660203934       
-58.6890411377      -22.4738006592      -2.47207999229      
-58.6890411377      -22.4738006592      2.47205805779       
-58.6890411377      -12.682849884       -12.1660404205      
-58.6890411377      -7.9807009697       -12.1660404205      
-58.0997200012      -3.31562399864      12.1660203934       
-58.0997200012      1.61875796318       7.37721014023       
-58.0997085571      -17.3479309082      12.1660203934       
-58.0997085571      -3.31562495232      -12.1660404205      
-58.0997085571      1.61875605583       -7.37723112106      
-58.0997009277      -22.2823104858      -7.37723112106      
-58.0997009277      -22.2823104858      7.37721014023       
-58.0997009277      -17.3479309082      -12.1660404205      
-56.9303398132      1.23880195618       -12.1660404205      
-56.9303398132      1.23880505562       12.1660203934       
-56.9303283691      -21.9023609161      12.1660203934       
-56.9303207397      -21.9023609161      -12.1660404205      
-56.8725891113      -8.09498214722      16.762960434        
-56.8725891113      6.39811706543       -2.47207999229      
-56.8725891113      6.39811706543       2.47205805779       
-56.8725814819      -12.568570137       16.762960434        
-56.8725700378      -27.0616703033      -2.47207999229      
-56.8725700378      -27.0616703033      2.47205805779       
-56.8725700378      -12.568570137       -16.7629795074      
-56.8725700378      -8.09498214722      -16.7629795074      
-56.3119010925      -3.65666699409      16.762960434        
-56.3119010925      6.13427686691       7.37721014023       
-56.3118896484      -17.0068893433      16.762960434        
-56.3118896484      -3.65667009354      -16.7629795074      
-56.3118896484      6.13427495956       -7.37723112106      
-56.3118782043      -26.7978305817      -7.37723112106      
-56.3118782043      -26.7978305817      7.37721014023       
-56.3118782043      -17.0068798065      -16.7629795074      
-55.1993598938      0.676377296448      16.762960434        
-55.1993598938      5.61075496674       -12.1660404205      
-55.1993598938      5.61075782776       12.1660203934       
-55.1993484497      -26.2743091583      12.1660203934       
-55.1993484497      -21.3399295807      16.762960434        
-55.1993484497      0.67637348175       -16.7629795074      
-55.1993408203      -26.2743091583      -12.1660404205      
-55.1993408203      -21.3399200439      -16.7629795074      
-54.4954299927      -8.24453830719      21.095539093        
-54.4954299927      10.7221498489       -2.47207999229      
-54.4954299927      10.7221498489       2.47205805779       
-54.4954185486      -12.4190101624      21.095539093        
-54.4954185486      -8.24453926086      -21.0955505371      
-54.4954109192      -31.3857002258      -2.47207999229      
-54.4954109192      -31.3857002258      2.47205805779       
-54.4954109192      -12.4190101624      -21.0955505371      
-53.972240448       10.3901195526       7.37721014023       
-53.9722290039      -4.10298204422      21.095539093        
-53.9722290039      10.3901100159       -7.37723112106      
-53.9722213745      -16.5605697632      21.095539093        
-53.9722213745      -4.10298299789      -21.0955505371      
-53.9722099304      -31.0536708832      7.37721014023       
-53.9722099304      -31.0536594391      -7.37723112106      
-53.9722099304      -16.5605697632      -21.0955505371      
-53.5525283813      4.83581590652       16.762960434        
-53.552520752       4.83581209183       -16.7629795074      
-53.5525093079      -25.499370575       16.762960434        
-53.5525016785      -25.4993591309      -16.7629795074      
-52.9340896606      9.73128700256       12.1660203934       
-52.9340782166      -0.0596571005881    21.095539093        
-52.9340782166      9.73128318787       -12.1660404205      
-52.9340705872      -20.6038894653      21.095539093        
-52.9340705872      -0.0596590004861    -21.0955505371      
-52.9340591431      -30.3948402405      12.1660203934       
-52.9340591431      -30.3948307037      -12.1660404205      
-52.9340591431      -20.6038894653      -21.0955505371      
-51.5950813293      14.7141504288       -2.47207999229      
-51.5950813293      14.7141504288       2.47205805779       
-51.5950698853      -12.2365398407      25.0954303741       
-51.5950698853      -8.42701053619      25.0954303741       
-51.5950584412      -8.42701244354      -25.0954494476      
-51.5950508118      -35.3777008057      -2.47207999229      
-51.5950508118      -35.3777008057      2.47205805779       
-51.5950508118      -12.236530304       -25.0954494476      
-51.3973617554      3.82167100906       21.095539093        
-51.3973617554      8.75605201721       16.762960434        
-51.3973503113      3.82166790962       -21.0955505371      
-51.3973503113      8.75604629517       -16.7629795074      
-51.3973388672      -29.4195995331      16.762960434        
-51.3973388672      -24.4852199554      21.095539093        
-51.3973388672      -24.4852104187      -21.0955505371      
-51.3973312378      -29.4195899963      -16.7629795074      
-51.1176185608      14.3191604614       7.37721014023       
-51.1176109314      -16.0160198212      25.0954303741       
-51.1176109314      -4.64752817154      25.0954303741       
-51.1176109314      14.319149971        -7.37723112106      
-51.1175994873      -16.0160198212      -25.0954494476      
-51.1175994873      -4.64753007889      -25.0954494476      
-51.1175918579      -34.982711792       7.37721014023       
-51.1175804138      -34.9827003479      -7.37723112106      
-50.1702308655      -0.957686424255     25.0954303741       
-50.1702308655      13.5354099274       12.1660203934       
-50.1702194214      -19.7058601379      25.0954303741       
-50.1702194214      -0.957690179348     -25.0954494476      
-50.1702194214      13.5354099274       -12.1660404205      
-50.1702003479      -34.1989593506      12.1660203934       
-50.1702003479      -34.1989517212      -12.1660404205      
-50.1702003479      -19.7058601379      -25.0954494476      
-49.3862915039      7.47979021072       21.095539093        
-49.3862800598      7.47978591919       -21.0955505371      
-49.3862686157      -28.1433391571      21.095539093        
-49.3862609863      -28.1433296204      -21.0955505371      
-48.7678489685      2.58431911469       25.0954303741       
-48.7678489685      12.3752603531       -16.7629795074      
-48.7678489685      12.3752603531       16.762960434        
-48.7678413391      2.58431410789       -25.0954494476      
-48.767829895       -33.03881073        16.762960434        
-48.767829895       -23.2478599548      25.0954303741       
-48.7678184509      -23.2478599548      -25.0954494476      
-48.7678108215      -33.0387992859      -16.7629795074      
-48.2172584534      -8.63952445984      28.6995506287       
-48.2172584534      18.3111591339       -2.47207999229      
-48.2172584534      18.3111591339       2.47205805779       
-48.217250824       -12.024020195       28.6995506287       
-48.217250824       -8.63952541351      -28.6995697021      
-48.2172393799      -12.024020195       -28.6995697021      
-48.2172317505      -38.9747009277      -2.47207999229      
-48.2172317505      -38.9747009277      2.47205805779       
-47.7930793762      17.8594398499       7.37721014023       
-47.7930717468      -5.28171682358      28.6995506287       
-47.7930717468      17.8594398499       -7.37723112106      
-47.7930603027      -15.3818302155      28.6995506287       
-47.7930603027      -5.28171920776      -28.6995697021      
-47.7930488586      -38.5229911804      7.37721014023       
-47.7930488586      -15.381819725       -28.6995697021      
-47.7930412292      -38.5229797363      -7.37723112106      
-46.9513893127      16.9631309509       12.1660203934       
-46.9513816833      -2.00355100632      28.6995506287       
-46.9513816833      16.9631309509       -12.1660404205      
-46.9513702393      -18.6599903107      28.6995506287       
-46.9513702393      -2.00355505943      -28.6995697021      
-46.9513587952      -18.6599903107      -28.6995697021      
-46.9513511658      -37.6266784668      12.1660203934       
-46.9513511658      -37.6266708374      -12.1660404205      
-46.932598114       5.92262983322       25.0954303741       
-46.932598114       10.8570098877       21.095539093        
-46.9325904846      5.92262506485       -25.0954494476      
-46.9325904846      10.8570098877       -21.0955505371      
-46.9325790405      -26.5861701965      25.0954303741       
[...]
CELL_DATA 2400
SCALARS pressure_coefficient float 1
LOOKUP_TABLE default
-43.172248897       
-43.1636832795      
-43.1688407757      
-43.1657327216      
-43.1642819433      
-43.1648816557      
-43.1643178737      
-43.1639674918      
-43.1630511587      
-43.1647152669      
-43.1621477747      
-43.164386035       
-43.1614427255      
-43.163635872       
-43.1625201569      
-43.1642350026      
-43.161699352       
-43.1628181945      
-43.1657084867      
-43.1604407692      
-43.1685015113      
-43.1633635618      
-43.1665545864      
-43.165486432       
-43.1647109314      
-43.1644200539      
-43.1674077847      
-43.1698710619      
-43.1722441451      
-43.171190377       
-43.1697293407      
-43.1699900426      
-43.1706778434      
-43.1709232816      
-43.1698075042      
-43.1683063483      
-43.169504742       
-43.1687529329      
-43.1691833572      
-43.1682738821      
-43.1708522517      
-43.1654005957      
-43.171609871       
-43.1702907502      
-43.1712784845      
-43.1696419536      
-43.1708935193      
-43.1671295145      
-43.1680167629      
-43.1615896424      
-157.001060251      
-166.658059277      
-157.019302931      
-166.654529412      
-157.008343388      
-166.661772132      
-157.003060437      
-166.658363317      
-157.011535847      
-166.651660706      
-157.008894193      
-166.651061633      
-157.001865093      
-166.653597406      
-157.006479182      
-166.646670142      
-157.004677072      
-166.65393014       
-157.002638379      
-166.649285217      
-157.010351798      
-166.651853861      
-157.005541787      
-166.654464594      
-157.00886293       
-166.656240145      
-157.007326694      
-166.649689799      
-156.996280981      
-166.657852802      
-157.005142365      
-166.649294805      
-157.021404977      
-166.671166895      
-157.010658305      
-166.650917889      
-156.984134011      
-166.639545313      
-157.005447837      
-166.65067484       
-156.997835052      
-166.659388196      
-157.020883836      
-166.657272009      
-157.007346089      
-166.657175812      
-156.995776371      
-166.655214992      
-157.007002499      
-166.656175153      
-157.001619087      
-166.654060685      
-156.997226211      
-166.650457532      
-157.006371694      
-166.659026286      
-157.021711347      
-166.666510859      
-157.0250475        
-166.65729086       
-157.005757923      
-166.650819696      
-157.013397396      
-166.651398008      
-157.02188067       
-166.671919052      
-157.02101605       
-166.657379836      
-157.016246453      
-166.645671503      
-157.002327169      
-166.651443551      
-157.003306596      
-166.64635273       
-157.022996866      
-166.656225369      
-157.004724284      
-166.656292452      
-157.003832528      
-166.652030485      
-157.008631254      
-166.650252855      
-157.009101916      
-166.659511488      
-157.004569048      
-166.644591215      
-157.010114948      
-166.663938597      
-157.018178788      
-166.646750884      
-157.022121886      
-166.655225613      
-157.016143382      
-166.666415193      
-157.01521673       
-166.656196715      
-157.007754134      
-166.651941213      
-157.012846616      
-166.644626418      
-19.0999269902      
-179.254181358      
-19.0971503651      
-179.235981139      
-19.0982057808      
-179.233485882      
-19.0979602816      
-179.235801014      
-19.0979194491      
-179.236118748      
-19.0966252994      
-179.238612629      
-19.0962142317      
-179.240693395      
-19.0966282027      
-179.231844343      
-19.0980416617      
-179.240423264      
-19.0984103408      
-179.23804158       
-19.097759627       
-179.234618894      
-19.0977643209      
-179.23962612       
-19.1002879513      
-179.23413086       
-19.0981811427      
-179.244733957      
-19.097808475       
-179.236734936      
-19.0962522869      
-179.229748062      
-19.0993324423      
-179.236447478      
-19.0985012837      
-179.233609352      
-19.0955386616      
-179.244388919      
-19.0956121844      
-179.232091773      
-19.0972058345      
-179.229137245      
-19.0972405875      
-179.239071505      
-19.0983284255      
-179.242775303      
-19.0980486475      
-179.234011919      
-19.0977341415      
-179.237480605      
-19.0981440599      
-179.239205102      
-19.0987186171      
-179.245754622      
-19.0985817683      
-179.246989229      
-19.0964505066      
-179.233001756      
-19.0972782463      
-179.233784478      
-19.0974343995      
-179.238526193      
-19.0991474804      
-179.235871558      
-19.0989669477      
-179.235702919      
-19.0988525186      
-179.23754032       
-19.0965036965      
-179.237829688      
-19.0965240115      
-179.23797733       
-19.0973572256      
-179.240619         
-19.0982745375      
-179.230343695      
-19.0977756518      
-179.23761193       
-19.0974249992      
-179.232644282      
-19.0975598133      
-179.230966619      
-19.0976733982      
-179.233879642      
-19.0958565402      
-179.236993226      
-19.0979920666      
-179.229644216      
-19.0976625313      
-179.227904163      
-19.0977641648      
-179.245148402      
-19.0985538958      
-179.235068854      
-19.0960252271      
-179.232349652      
-19.0991048379      
-179.24692111       
-19.0973503097      
-179.198543484      
-0.826832169956     
-121.955915874      
-0.828179106442     
-121.932962412      
-0.827987818214     
-121.934303135      
-0.828091947274     
-121.938647222      
-0.829040413016     
-121.924262959      
-0.828529591385     
-121.930422802      
-0.827801995467     
-121.930707759      
-0.828035761146     
-121.932919343      
-0.828066267897     
-121.933713389      
-0.828404436874     
-121.931598477      
-0.828642007283     
-121.933121685      
-0.828052805046     
-121.933304204      
-0.828395027252     
-121.935130394      
-0.827650937098     
-121.932157548      
-0.828191976286     
-121.936664526      
-0.828737559881     
-121.934564565      
-0.827917169283     
-121.938559994      
-0.828227023784     
-121.935173297      
-0.828113910578     
-121.930138348      
-0.828596751591     
-121.931747599      
-0.828817716828     
-121.934710577      
-0.828091426809     
-121.930323491      
-0.828563987152     
-121.927411571      
-0.828951767566     
-121.93250437       
-0.827831029291     
-121.933599758      
-0.82782365511      
-121.929970123      
-0.828177183427     
-121.934480137      
-0.828234418014     
-121.933928303      
-0.828845179918     
-121.914958662      
-0.828376735818     
-121.943206271      
-0.828336330971     
-121.92627752       
-0.828513608745     
-121.935647579      
-0.828282459911     
-121.931185556      
-0.828499145892     
-121.934363595      
-0.828075780929     
-121.928138699      
-0.828124485718     
-121.937910345      
-0.828105840589     
-121.933543471      
-0.828341145876     
-121.926042285      
-0.828133831796     
-121.933855135      
-0.828178283194     
-121.928945742      
-0.828371038747     
-121.932867493      
-0.828241526984     
-121.934642981      
-0.828042384018     
-121.930091984      
-0.827961215927     
-121.934589904      
-0.828592793078     
-121.93531607       
-0.827813762052     
-121.933680979      
-0.828280718076     
-121.935461996      
-0.828630087965     
-121.931445288      
-0.827064561111     
-121.944152904      
-0.829743652198     
-121.902947685      
-5.95765133483      
-71.9746467208      
-5.96161105765      
-71.9650104805      
-5.96288679851      
-71.9597829403      
-5.96219961231      
-71.9600125021      
-5.96277194063      
-71.9553075509      
-5.96021862066      
-71.9675414775      
-5.96123043877      
-71.9686323681      
-5.96214242288      
-71.9623382749      
-5.96135460573      
-71.9626032129      
-5.96168883176      
-71.9651063758      
-5.96113688057      
-71.965723218       
-5.96178836306      
-71.9672267839      
-5.96096368276      
-71.9601048194      
-5.96188703251      
-71.9672288811      
-5.96141031527      
-71.9657814912      
-5.9612164629       
-71.9618750126      
-5.96171556631      
-71.9659710811      
-5.96188914852      
-71.9653976691      
-5.96215418796      
-71.9608513379      
-5.9624778169       
-71.9650889636      
-5.96138953272      
-71.9659665084      
-5.96161175633      
-71.9615526835      
-5.96213738121      
-71.9651113449      
-5.95982225491      
-71.9627093055      
-5.96130695878      
-71.9698521216      
-5.96328869893      
-71.9646963381      
-5.96108645492      
-71.9592286526      
-5.96040536283      
-71.9626665787      
-5.96270680589      
-71.9678524775      
-5.95890330228      
-71.9642713356      
-5.96220653005      
-71.9647884035      
-5.96011716797      
-71.9642116758      
-5.96214069003      
-71.9633023668      
-5.9609498197       
-71.9660972381      
-5.96227500183      
-71.9643879635      
-5.96033210709      
-71.9652534629      
-5.96090653918      
-71.9575401314      
-5.96234954287      
-71.9663910232      
-5.96119236484      
-71.9650282346      
-5.96169426211      
-71.9659300182      
-5.96137620548      
-71.9640108459      
-5.96168262515      
-71.965093333       
-5.96164551034      
-71.9620345424      
-5.96181948624      
-71.9635464246      
-5.96147161831      
-71.9615550129      
-5.96121006755      
-71.9627639303      
-5.96163870561      
-71.960759263       
-5.96200023489      
-71.9637686627      
-5.95736081447      
-71.9700085301      
-5.96686745019      
-71.9454900129      
-5.62917558976      
-38.7334930844      
-5.62986853718      
-38.7236463992      
-5.63107907738      
-38.718948009       
-5.62997146477      
-38.7226117898      
-5.63111383866      
-38.7279343428      
-5.62914364375      
-38.723229846       
-5.63146978614      
-38.722087946       
-5.63009904377      
-38.7195747656      
-5.63036628477      
-38.7249460432      
-5.63070771402      
-38.7210201507      
-5.63058523758      
-38.7239385333      
-5.63060095906      
-38.7204921888      
-5.63198266906      
-38.7227101063      
-5.63072307224      
-38.7213884948      
-5.63038526757      
-38.7191272314      
-5.63074222399      
-38.7218408329      
-5.63032356796      
-38.7204079975      
-5.62946677752      
-38.7223699673      
-5.63101628511      
-38.7253207941      
-5.63000675338      
-38.7197451725      
-5.63019522795      
-38.7247542056      
-5.63064394083      
-38.7219551983      
-5.63038641706      
-38.7242034998      
-5.63135634179      
-38.7237963063      
-5.63012100915      
-38.7173925285      
-5.6293748693       
-38.7222012719      
-5.63081434388      
-38.7237452687      
-5.63056418872      
-38.724654896       
-5.63050708945      
-38.7207965057      
-5.6316388177       
-38.7228349688      
-5.63015992729      
-38.7199493952      
-5.63008251348      
-38.7224116934      
-5.63111773181      
-38.723167315       
-5.62987106909      
-38.723242627       
-5.6304335934       
-38.7239204         
-5.63041356922      
-38.7196208484      
-5.63151129433      
-38.7234633525      
-5.6297224318       
-38.7222724598      
-5.63048690452      
-38.7231288389      
-5.63037732693      
-38.7216641858      
-5.63064816107      
-38.7217080192      
-5.63011550514      
-38.7220400328      
-5.63063456244      
-38.7222028521      
-5.63047911755      
-38.7230707764      
-5.63020775379      
-38.7228129978      
-5.63038070754      
-38.7240251709      
-5.63079509627      
-38.7211444889      
-5.63027471836      
-38.7235978192      
-5.6277067873       
-38.7273903803      
-5.63430081387      
-38.7053923301      
-3.62239855058      
-19.5806559619      
-3.62391857433      
-19.5766769665      
-3.62463587592      
-19.5736663859      
-3.62429466159      
-19.5768054371      
-3.62293404758      
-19.5739813299      
-3.62480429099      
-19.5772194168      
-3.62436316973      
-19.5737306322      
-3.62447963148      
-19.5752974301      
-3.62365339529      
-19.5754877549      
-3.62402287722      
-19.5750701897      
-3.62411404031      
-19.5759937687      
-3.62426899928      
-19.5739687455      
-3.62361538184      
-19.5770031073      
-3.62346983171      
-19.576572994       
-3.62431022754      
-19.576592932       
-3.62420348168      
-19.5762072596      
-3.62402894559      
-19.5761685484      
-3.62480954491      
-19.5767181964      
-3.62353676396      
-19.5738889042      
-3.62497200171      
-19.5748520188      
-3.62313517641      
-19.5772889679      
-3.6246366824       
-19.5758532108      
-3.62357611434      
-19.574937072       
-3.62374871562      
-19.576251247       
-3.62472309226      
-19.5778134598      
-3.62402901719      
-19.5741017434      
-3.62486209629      
-19.5752319565      
-3.62353440737      
-19.575980232       
-3.62427318229      
-19.5746480263      
-3.62351026143      
-19.5762433603      
-3.62431263162      
-19.5775156932      
-3.62466339281      
-19.5740543255      
-3.6237739407       
-19.5749345768      
-3.62425189564      
-19.5765694068      
-3.62374185019      
-19.573415441       
-3.62502064912      
-19.5774308278      
-3.62379583589      
-19.5742835517      
-3.62458479989      
-19.5753608746      
-3.62419392648      
-19.5749181378      
-3.62406036077      
-19.575218339       
-3.62411852965      
-19.575516097       
-3.62423420311      
-19.5754093211      
-3.62433789839      
-19.574893015       
-3.62383577364      
-19.575253319       
-3.62443619034      
-19.5749715942      
-3.62424888545      
-19.574410849       
-3.62468690474      
-19.574467117       
-3.62421729309      
-19.5759275383      
-3.62164102747      
-19.576903217       
-3.62813645916      
-19.5677960244      
-2.21392064066      
-9.70868636034      
-2.21468038105      
-9.70548744302      
-2.21521317463      
-9.7050634755       
-2.21454928386      
-9.7042401524       
-2.21560203976      
-9.70646300826      
-2.21466089471      
-9.70404168891      
-2.21494326481      
-9.70541030096      
-2.21487392652      
-9.7051684892       
-2.21460794369      
-9.70544695801      
-2.21505456295      
-9.7049832041       
-2.21489000265      
-9.70475258693      
-2.21503245798      
-9.70557164666      
-2.21475351751      
-9.70511974799      
-2.21530400848      
-9.70512817908      
-2.21506264939      
-9.7040542805       
-2.21477292276      
-9.705505241        
-2.21479855608      
-9.70557964369      
-2.21460639165      
-9.70469640587      
-2.21473810234      
-9.70537368213      
-2.21518167862      
-9.70536637571      
-2.21476959743      
-9.70577518652      
-2.21524150483      
-9.70480028808      
-2.21512595341      
-9.70506655414      
-2.21491559593      
-9.70460168606      
-2.21475824011      
-9.70509215086      
-2.21545432121      
-9.70497636617      
-2.21444678129      
-9.70614048242      
-2.21503271951      
-9.70538054764      
-2.21519790457      
-9.70510873474      
-2.21485482132      
-9.70552159367      
-2.21455309092      
-9.70449694232      
-2.21524147498      
-9.70520210975      
-2.2149737589       
-9.70621381224      
-2.21453882907      
-9.70538498139      
-2.21531310827      
-9.7053700033       
-2.2143065832       
-9.70459928775      
-2.21524885533      
-9.70599937821      
-2.21476503235      
-9.70516831092      
-2.21482914513      
-9.70555013718      
-2.21499821225      
-9.70535665333      
-2.2149831282       
-9.70497998095      
-2.21490471456      
-9.7053255974       
-2.21480735605      
-9.70557710632      
-2.21484329189      
-9.70517158809      
-2.21507386642      
-9.70520052649      
-2.21485859328      
-9.70526428695      
-2.21486207038      
-9.70540970367      
-2.21468490018      
-9.70528352182      
-2.21401949459      
-9.70695668513      
-2.21688657805      
-9.69990795625      
-1.69685820064      
-5.12361744107      
-1.69738583686      
-5.12193819343      
-1.6973827871       
-5.12130366558      
-1.69772524906      
-5.12182331152      
-1.69713110315      
-5.12150152721      
-1.69752379339      
-5.12202258359      
-1.697480907        
-5.12161749525      
-1.69744267589      
-5.12131622217      
-1.69744891064      
-5.12176854645      
-1.69755478344      
-5.12143748981      
-1.69752271757      
-5.12188322172      
-1.69744806026      
-5.12175376315      
-1.69754706732      
-5.12139451366      
-1.69740256986      
-5.1220655543       
-1.69764171143      
-5.12143541488      
-1.69731953009      
-5.1217633084       
-1.69750677237      
-5.12121475922      
-1.69754594223      
-5.12166156946      
-1.69750319698      
-5.12200091806      
-1.69764187676      
-5.12153674337      
-1.69727081048      
-5.12123264194      
-1.6974434519       
-5.12190654498      
-1.69742652194      
-5.12174626434      
-1.69747624975      
-5.1217553046       
-1.69738975864      
-5.12161006535      
-1.69754072569      
-5.12137095838      
-1.69727268479      
-5.12190973757      
-1.69749176833      
-5.1215290347       
-1.69732885679      
-5.12194843439      
-1.69729137567      
-5.12173581842      
-1.69764507234      
-5.1217916374       
-1.69747199431      
-5.1215338876       
-1.69735751288      
-5.12172718092      
-1.69739707771      
-5.12185113147      
-1.69741928596      
-5.12107258822      
-1.6976879973       
-5.12184614459      
-1.69739701731      
-5.1217325918       
-1.69744954318      
-5.1214735166       
-1.69745049703      
-5.12160459645      
-1.69746592948      
-5.1216595301       
-1.69748062034      
-5.12151396966      
-1.69743573023      
-5.1218203768       
-1.69742966903      
-5.12134664044      
-1.69757507995      
-5.12137689315      
-1.69744304265      
-5.12165445919      
-1.69748472448      
-5.12154372839      
-1.69740070383      
-5.12169930145      
-1.69753031412      
-5.12145725131      
-1.69677331999      
-5.12260878122      
-1.69858602427      
-5.11901832739      
-1.73748216878      
-3.24476199914      
-1.73773892333      
-3.24383801179      
-1.73788354633      
-3.24370792048      
-1.73773452078      
-3.24368755599      
-1.73783251326      
-3.24403683725      
-1.73772305492      
-3.24363892644      
-1.73779466569      
-3.24361633226      
-1.73773914025      
-3.24391025337      
-1.73781139135      
-3.24376497718      
-1.73778528925      
-3.2437594827       
-1.73775523301      
-3.2439368496       
-1.73779885117      
-3.24370885437      
-1.73783552062      
-3.24366916991      
-1.73772980653      
-3.24386973141      
-1.73781473453      
-3.24376008785      
-1.73775438984      
-3.24376342717      
-1.73788096868      
-3.24384556811      
-1.73782083528      
-3.24381584711      
-1.73774308881      
-3.24378405843      
-1.73774552415      
-3.24358593512      
-1.73788874723      
-3.24403318562      
-1.73776207899      
-3.24359020941      
-1.73778593997      
-3.24390723424      
-1.73782449471      
-3.24374436538      
-1.7377870736       
-3.24357229475      
-1.73776900454      
-3.24399487295      
-1.73777700442      
-3.24376054661      
-1.73784508363      
-3.24378310397      
-1.73778503781      
-3.24359800805      
-1.73786182588      
-3.24394076048      
-1.73777195743      
-3.24344055797      
-1.73777610567      
-3.2441039058       
-1.73775022528      
-3.24362952862      
-1.73771734505      
-3.24406744337      
-1.73795950967      
-3.24349446548      
-1.73769841026      
-3.24386968916      
-1.73770041668      
-3.24389545028      
-1.73784675584      
-3.24366172131      
-1.73779148263      
-3.24377799149      
-1.73776360634      
-3.24369535553      
-1.73781831217      
-3.24384154012      
-1.73770956158      
-3.24373553361      
-1.73782383718      
-3.24375305487      
-1.73774916136      
-3.24390051207      
-1.73772901936      
-3.24386568533      
-1.73779367297      
-3.24376878424      
-1.73773104179      
-3.24390747043      
-1.737820021        
-3.24359103652      
-1.7374499985       
-3.24435105371      