# vtk DataFile Version 3.0
PyPan results file. Generated by PyPan, USU AeroLab (c) 2020.
ASCII
DATASET POLYDATA
POINTS 4902 float
-21.3197593689      -10.3317604065      39.3700790405       
-21.3197593689      -7.85968923569      39.292388916        
-21.4749908447      -7.86456680298      39.292388916        
-21.6295890808      -7.87918186188      39.292388916        
-21.7829799652      -7.90347623825      39.292388916        
-21.9345397949      -7.93735313416      39.292388916        
-22.0836791992      -7.98067998886      39.292388916        
-22.2297897339      -8.03328609467      39.292388916        
-22.3723201752      -8.09496307373      39.292388916        
-22.5106906891      -8.16546726227      39.292388916        
-22.6443595886      -8.24452114105      39.292388916        
-22.7728099823      -8.33181190491      39.292388916        
-22.8955192566      -8.42699623108      39.292388916        
-23.0120105743      -8.52969741821      39.292388916        
-23.1218204498      -8.63951015472      39.292388916        
-23.2245292664      -8.75600147247      39.292388916        
-23.3197097778      -8.87871170044      39.292388916        
-23.406999588       -9.00715732574      39.292388916        
-23.4860496521      -9.14083003998      39.292388916        
-23.5565605164      -9.27920246124      39.292388916        
-23.6182308197      -9.42172908783      39.292388916        
-23.6708393097      -9.56784629822      39.292388916        
-23.7141704559      -9.71697902679      39.292388916        
-23.7480392456      -9.86853885651      39.292388916        
-23.7723407745      -10.0219297409      39.292388916        
-23.7869491577      -10.1765403748      39.292388916        
-23.7918300629      -10.3317604065      39.292388916        
-23.7869491577      -10.4869804382      39.292388916        
-23.7723407745      -10.6415901184      39.292388916        
-23.7480392456      -10.7949800491      39.292388916        
-23.7141704559      -10.9465398788      39.292388916        
-23.6708393097      -11.0956697464      39.292388916        
-23.6182308197      -11.2417898178      39.292388916        
-23.5565605164      -11.3843097687      39.292388916        
-23.4860496521      -11.5226898193      39.292388916        
-23.406999588       -11.6563596725      39.292388916        
-23.3197097778      -11.7847995758      39.292388916        
-23.2245197296      -11.9075098038      39.292388916        
-23.1218204498      -12.0240001678      39.292388916        
-23.0120105743      -12.1338195801      39.292388916        
-22.8955192566      -12.2365198135      39.292388916        
-22.7728099823      -12.331700325       39.292388916        
-22.6443595886      -12.4189901352      39.292388916        
-22.5106906891      -12.498049736       39.292388916        
-22.3723201752      -12.5685501099      39.292388916        
-22.2297897339      -12.63022995        39.292388916        
-22.0836696625      -12.6828298569      39.292388916        
-21.9345397949      -12.7261600494      39.292388916        
-21.7829799652      -12.7600402832      39.292388916        
-21.6295890808      -12.784330368       39.292388916        
-21.4749794006      -12.7989501953      39.292388916        
-21.3197593689      -12.8038196564      39.292388916        
-21.1645393372      -12.7989501953      39.292388916        
-21.009929657       -12.784330368       39.292388916        
-20.8565406799      -12.7600402832      39.292388916        
-20.7049808502      -12.7261600494      39.292388916        
-20.5558490753      -12.6828298569      39.292388916        
-20.4097309113      -12.63022995        39.292388916        
-20.2672100067      -12.5685501099      39.292388916        
-20.1288299561      -12.4980401993      39.292388916        
-19.9951591492      -12.4189901352      39.292388916        
-19.8667201996      -12.331700325       39.292388916        
-19.7440109253      -12.2365198135      39.292388916        
-19.6275100708      -12.1338100433      39.292388916        
-19.5177001953      -12.0240001678      39.292388916        
-19.4150009155      -11.9075098038      39.292388916        
-19.3198204041      -11.7847995758      39.292388916        
-19.2325191498      -11.6563501358      39.292388916        
-19.1534690857      -11.5226802826      39.292388916        
-19.0829696655      -11.3843097687      39.292388916        
-19.0212898254      -11.2417802811      39.292388916        
-18.9686908722      -11.0956602097      39.292388916        
-18.925359726       -10.9465303421      39.292388916        
-18.8914794922      -10.7949695587      39.292388916        
-18.8671894073      -10.6415901184      39.292388916        
-18.8525695801      -10.4869699478      39.292388916        
-18.8476905823      -10.3317499161      39.292388916        
-18.8525695801      -10.1765298843      39.292388916        
-18.8671894073      -10.0219202042      39.292388916        
-18.8914794922      -9.86853313446      39.292388916        
-18.925359726       -9.71697425842      39.292388916        
-18.9686908722      -9.56784152985      39.292388916        
-19.0212898254      -9.42172336578      39.292388916        
-19.0829696655      -9.27919769287      39.292388916        
-19.1534805298      -9.14082527161      39.292388916        
-19.2325305939      -9.00715255737      39.292388916        
-19.3198204041      -8.87870788574      39.292388916        
-19.4150009155      -8.75599765778      39.292388916        
-19.5177097321      -8.63950634003      39.292388916        
-19.6275196075      -8.52969360352      39.292388916        
-19.7440109253      -8.42699241638      39.292388916        
-19.8667201996      -8.33180904388      39.292388916        
-19.9951705933      -8.24451828003      39.292388916        
-20.1288394928      -8.16546440125      39.292388916        
-20.2672100067      -8.09496021271      39.292388916        
-20.409740448       -8.03328418732      39.292388916        
-20.5558605194      -7.98067903519      39.292388916        
-20.704990387       -7.93735218048      39.292388916        
-20.8565502167      -7.90347480774      39.292388916        
-21.0099391937      -7.8791809082       39.292388916        
-21.1645507812      -7.86456680298      39.292388916        
-21.6296005249      -5.40711402893      39.0596389771       
-21.3197593689      -5.39737701416      39.0596389771       
-21.9382095337      -5.4362859726       39.0596389771       
-22.2443695068      -5.4847779274       39.0596389771       
-22.5468902588      -5.55240011215      39.0596389771       
-22.8445701599      -5.63888311386      39.0596389771       
-23.1362304688      -5.74388694763      39.0596389771       
-23.4207191467      -5.86699676514      39.0596389771       
-23.6969203949      -6.00772714615      39.0596389771       
-23.9637393951      -6.16552305222      39.0596389771       
-24.2201194763      -6.33975982666      39.0596389771       
-24.4650592804      -6.52975320816      39.0596389771       
-24.6975803375      -6.73474979401      39.0596389771       
-24.9167709351      -6.95394182205      39.0596389771       
-25.1217708588      -7.18646621704      39.0596389771       
-25.3117599487      -7.43140220642      39.0596389771       
-25.486000061       -7.68778514862      39.0596389771       
-25.6437892914      -7.95460319519      39.0596389771       
-25.7845191956      -8.23080158234      39.0596389771       
-25.9076309204      -8.51529216766      39.0596389771       
-26.0126399994      -8.8069524765       39.0596389771       
-26.0991191864      -9.10462856293      39.0596389771       
-26.1667404175      -9.40714836121      39.0596389771       
-26.2152309418      -9.71331691742      39.0596389771       
-26.2444095612      -10.0219297409      39.0596389771       
-26.2541408539      -10.3317604065      39.0596389771       
-26.2444095612      -10.6415901184      39.0596389771       
-26.2152309418      -10.9502000809      39.0596389771       
-26.1667404175      -11.2563695908      39.0596389771       
-26.0991191864      -11.5588903427      39.0596389771       
-26.0126399994      -11.8565702438      39.0596389771       
-25.9076309204      -12.148229599       39.0596389771       
-25.7845191956      -12.4327201843      39.0596389771       
-25.6437892914      -12.7089195251      39.0596389771       
-25.486000061       -12.9757299423      39.0596389771       
-25.3117599487      -13.2321100235      39.0596389771       
-25.1217708588      -13.4770498276      39.0596389771       
-24.9167709351      -13.709569931       39.0596389771       
-24.6975708008      -13.9287700653      39.0596389771       
-24.4650497437      -14.1337604523      39.0596389771       
-24.2201194763      -14.3237600327      39.0596389771       
-23.9637298584      -14.4979896545      39.0596389771       
-23.6969108582      -14.655790329       39.0596389771       
-23.4207191467      -14.7965202332      39.0596389771       
-23.1362304688      -14.9196300507      39.0596389771       
-22.8445701599      -15.0246295929      39.0596389771       
-22.5468902588      -15.1111097336      39.0596389771       
-22.2443695068      -15.1787395477      39.0596389771       
-21.9381999969      -15.227230072       39.0596389771       
-21.6295890808      -15.2564001083      39.0596389771       
-21.3197593689      -15.2661399841      39.0596389771       
-21.009929657       -15.2564001083      39.0596389771       
-20.7013206482      -15.227230072       39.0596389771       
-20.395149231       -15.178730011       39.0596389771       
-20.0926303864      -15.1111097336      39.0596389771       
-19.7949504852      -15.0246295929      39.0596389771       
-19.5032901764      -14.9196195602      39.0596389771       
-19.2187995911      -14.7965097427      39.0596389771       
-18.9426002502      -14.6557798386      39.0596389771       
-18.6757907867      -14.4979896545      39.0596389771       
[...]
CELL_DATA 9800
SCALARS pressure_coefficient float 1
LOOKUP_TABLE default
-437.509070611      
-437.104340052      
-437.288861259      
-437.207178913      
-437.325562543      
-437.167964251      
-437.321944645      
-437.25981317       
-437.197618537      
-437.270194053      
-437.234059493      
-437.249493943      
-437.202210513      
-437.291166487      
-437.216362372      
-437.266302941      
-437.196649947      
-437.263423588      
-437.223960843      
-437.24624408       
-437.230867928      
-437.185054377      
-437.281094232      
-437.218169844      
-437.207973743      
-437.228895433      
-437.208882141      
-437.232773915      
-437.203632005      
-437.202734091      
-437.299569572      
-437.124184967      
-437.307723121      
-437.070315286      
-437.207845332      
-437.276987357      
-437.236305743      
-437.284085792      
-437.20005989       
-437.196519608      
-437.282638915      
-437.213391184      
-437.151983297      
-437.257931168      
-437.227298475      
-437.236670756      
-437.22068662       
-437.20616171       
-437.218581871      
-437.204389541      
-437.213510823      
-437.24452484       
-437.243932094      
-437.251226709      
-437.260501343      
-437.249182523      
-437.162509346      
-437.252753436      
-437.201310757      
-437.169491182      
-437.154125618      
-437.35441096       
-437.120188467      
-437.301288502      
-437.212392585      
-437.355390969      
-437.240140036      
-437.288648025      
-437.319103615      
-437.268781309      
-437.286774484      
-437.361352224      
-437.17754517       
-437.370442195      
-437.204052054      
-437.289675494      
-437.310969718      
-437.263729531      
-437.258544695      
-437.303291886      
-437.268405448      
-437.275001241      
-437.264856612      
-437.23812848       
-437.304154575      
-437.208690057      
-437.283519631      
-437.226091792      
-437.292322         
-437.241991879      
-437.312812498      
-437.19592399       
-437.241854746      
-437.318746769      
-437.246514677      
-437.221064222      
-437.263499638      
-437.268718685      
-437.328096379      
-437.183549332      
-747.771293438      
-895.16708555       
-748.15917881       
-894.638607921      
-747.901729108      
-894.581495513      
-747.811376188      
-894.721529552      
-747.752927774      
-894.648624124      
-748.14515646       
-894.744205657      
-747.86295596       
-894.67701672       
-748.119764153      
-894.817657519      
-748.030693599      
-894.924850239      
-748.012299558      
-894.478382314      
-748.116400114      
-894.909729677      
-747.975672188      
-894.845455038      
-748.185364548      
-894.769459924      
-747.926962055      
-894.774542109      
-748.104332586      
-894.622330848      
-748.052154964      
-894.942303071      
-747.957968258      
-894.873056153      
-748.013769732      
-894.929680916      
-748.227802216      
-894.996363868      
-748.090199169      
-895.082348242      
-747.877608494      
-894.792502771      
-748.04257649       
-894.762124261      
-747.882971108      
-894.776001164      
-747.836984925      
-895.008341415      
-748.040209351      
-894.801373178      
-748.104320312      
-894.922721977      
-748.104981822      
-895.01923242       
-747.813458226      
-894.800383092      
-748.019258628      
-894.76117025       
-748.01610864       
-894.891699416      
-747.900995838      
-894.904006093      
-748.383845911      
-895.00678005       
-747.515065722      
-894.722738947      
-747.906428496      
-894.192152907      
-748.042939636      
-894.867326636      
-747.868409648      
-894.759557219      
-748.116217516      
-894.882756813      
-748.035353833      
-895.195352747      
-748.198037492      
-894.494668813      
-748.188915874      
-894.803648334      
-747.881776494      
-894.80930747       
-747.845324602      
-894.871182898      
-748.243389665      
-894.587783727      
-747.752703763      
-894.694561449      
-747.971556847      
-894.792260824      
-748.202870723      
-895.03162767       
-747.984193006      
-894.789536297      
-747.726836811      
-894.678207036      
-747.811763788      
-894.755444266      
-748.040919345      
-894.69918422       
-748.011205766      
-894.705849997      
-747.997040644      
-894.897899142      
-747.973976471      
-895.038257067      
-747.86934362       
-894.830146139      
-748.213320999      
-894.94088821       
-748.169889403      
-895.094859618      
-748.142757139      
-894.89315242       
-747.413152587      
-894.568206203      
-748.101403243      
-894.237628682      
-748.193844971      
-895.342538853      
-748.0611904        
-894.618216904      
-747.425707204      
-894.86754435       
-747.998708423      
-894.446844482      
-748.125622679      
-895.162269178      
-747.960388549      
-894.639891057      
-747.445304848      
-894.788298116      
-748.027380059      
-894.504289014      
-748.237507773      
-894.946688995      
-747.767819179      
-894.754867465      
-747.942548388      
-894.743354636      
-747.999623004      
-895.137803021      
-748.104167374      
-895.01872118       
-748.090294262      
-895.023548187      
-747.685992485      
-894.859205104      
-747.870760289      
-894.601182655      
-748.133539952      
-894.588155046      
-747.973908332      
-894.867956368      
-748.040640997      
-894.865465976      
-748.025909645      
-894.711988394      
-747.916559334      
-894.693468149      
-748.010684539      
-894.798553847      
-747.943118126      
-894.636300813      
-747.659418954      
-894.708498407      
-747.859555866      
-894.601577153      
-748.109390556      
-894.828803542      
-748.059885576      
-894.890499044      
-747.724723221      
-894.53589864       
-748.010389581      
-894.880475986      
-748.109408811      
-894.625867822      
-747.849715502      
-894.768093629      
-747.906262375      
-894.508655761      
-747.878775443      
-894.670431788      
-748.163119321      
-894.42844936       
-747.891724074      
-895.048799441      
-747.773586414      
-894.466502859      
-748.037748433      
-894.401592119      
-748.008982114      
-894.738346062      
-747.876150791      
-894.556421866      
-747.996295064      
-894.657597301      
-748.560751989      
-894.684174859      
-37.0824264046      
-1358.15233367      
-37.0406440093      
-1358.12683083      
-37.0638908315      
-1357.88819408      
-37.0758942287      
-1357.83946756      
-37.0558239706      
-1358.23048861      
-37.0594479309      
-1358.08878877      
-37.0504808024      
-1358.1508082       
-37.0757230008      
-1358.23961853      
-37.0677609573      
-1357.8950856       
-37.0570022162      
-1358.20661641      
-37.0504437219      
-1358.39379326      
-37.0644985419      
-1358.09978187      
-37.0467544848      
-1358.24507681      
-37.0446881249      
-1358.06245441      
-37.0315429136      
-1357.97880501      
-37.0598480327      
-1358.08520156      
-37.0709690821      
-1357.9166648       
-37.0866307923      
-1358.08813787      
-37.0843163211      
-1358.22662108      
-37.0715302181      
-1358.04679762      
-37.071283559       
-1357.98001168      
-37.0637617544      
-1358.30263106      
-37.0515451714      
-1358.26360844      
-37.0615119899      
-1357.91049346      
-37.0673134162      
-1358.07593217      
-37.0739836454      
-1358.35316941      
-37.0739725277      
-1358.15653844      
-37.0560155222      
-1358.10530433      
-37.0630924058      
-1358.23180978      
-37.0689707335      
-1358.23132085      
-37.0633419103      
-1357.93705562      
-37.0549206152      
-1357.82929627      
-37.0485651936      
-1357.90558112      
-37.0318144921      
-1358.34089694      
-37.0623193096      
-1357.99630661      
-37.0450642433      
-1358.44133008      
-37.0525682171      
-1357.5961137       
-37.0515351469      
-1358.07029368      
-37.0174225675      
-1358.06895094      
-37.057878922       
-1358.06530056      
-37.0456577584      
-1358.09974656      
-37.0504501263      
-1357.82886001      
-37.0077930298      
-1358.26465658      
-37.0562457939      
-1357.99361128      
-37.0652505165      
-1358.25262819      
-37.0630247268      
-1357.77510596      
-37.0378767482      
-1358.14075505      
-37.0538894499      
-1358.05684506      
-37.0628518087      
-1358.02682836      
-37.0421323492      
-1358.17108341      
-37.0456507487      
-1358.03422037      
-37.0669507281      
-1358.10140119      
-37.065397287       
-1358.24928638      
-37.0654093396      
-1357.97579987      
-37.0540318882      
-1358.29731397      
-37.0567419984      
-1357.88571242      
-37.0522860361      
-1357.98875486      
-37.0549915141      
-1358.32462027      
-37.0411698171      
-1358.35337641      
-37.0883199361      
-1357.62714925      
-37.0593323419      
-1358.1791501       
-37.0645752447      
-1358.51169092      
-37.0215818458      
-1357.73551016      
-37.0643819744      
-1358.43377901      
-37.0554907558      
-1357.95356587      
-37.0857406522      
-1358.1212716       
-37.0375761985      
-1358.19964895      
-37.0753269652      
-1358.23886515      
-37.0624607582      
-1358.08981028      
-37.0554271294      
-1358.00649808      
-37.0907920735      
-1357.80652346      
-37.0669929382      
-1358.19940722      
-37.0785252841      
-1357.85841235      
-37.0488385872      
-1358.26206307      
-37.055339656       
-1357.58453164      
-37.0553514693      
-1358.30608545      
-37.0534678924      
-1358.15235149      
-37.0567799039      
-1357.97639997      
-37.0600354822      
-1358.06983122      
-37.0542819745      
-1358.17006863      
-37.0540744285      
-1357.90979957      
-37.0394907421      
-1358.17014577      
-37.052254964       
-1358.10953465      
-37.070396699       
-1358.0997893       
-37.0783712643      
-1357.9958255       
-37.0505065493      
-1358.08444475      
-37.0583787787      
-1357.97959948      
-37.0742964045      
-1358.08294816      
-37.0461736406      
-1358.1606674       
-37.073270728       
-1357.94142304      
-37.0356888678      
-1358.54854769      
-37.0676103105      
-1357.73965848      
-37.0354617321      
-1358.37267339      
-37.0747563122      
-1357.88510606      
-37.0339369271      
-1358.01758927      
-37.0342125978      
-1358.27639474      
-37.0586141767      
-1358.34282509      
-37.0134898837      
-1357.90518192      
-37.0513597895      
-1357.99277016      
-37.0238687832      
-1357.42586948      
-121.74113456       
-1307.49254718      
-121.76489575       
-1306.91095631      
-121.862447403      
-1307.13409545      
-121.87892299       
-1307.26726969      
-121.841013112      
-1306.96754051      
-121.835926129      
-1306.85027816      
-121.801962774      
-1306.86855353      
-121.791418854      
-1307.39514641      
-121.904488597      
-1306.83097426      
-121.833888167      
-1307.32694276      
-121.751296874      
-1306.91976317      
-121.765710227      
-1306.96435145      
-121.809519319      
-1306.92738596      
-121.797037823      
-1307.27550688      
-121.812115837      
-1307.03963088      
-121.823905855      
-1307.22691644      
-121.847156517      
-1307.01183778      
-121.826216247      
-1307.15853905      
-121.798466392      
-1307.08020884      
-121.851319989      
-1306.97354876      
-121.852684571      
-1307.11955762      
-121.779207977      
-1306.94395819      
-121.785265788      
-1306.93853588      
-121.847005995      
-1307.09652597      
-121.828175729      
-1307.08750146      
-121.789402384      
-1307.08894836      
-121.779836072      
-1307.04815819      
-121.807071684      
-1307.19912382      
-121.79811151       
-1307.25464641      
-121.814533117      
-1306.96872932      
-121.854460426      
-1307.17677547      
-121.868142272      
-1307.0180402       
-121.876237154      
-1307.29195611      
-121.780452852      
-1306.92951761      
-121.866799809      
-1306.90788185      
-121.783362272      
-1307.11597612      
-121.910149485      
-1306.90542037      
-121.813559375      
-1307.23325107      
-121.820120366      
-1307.0246249       
-121.855894946      
-1307.18406491      
-121.832144804      
-1307.07817022      
-121.847421137      
-1307.19290954      
-121.75435377       
-1306.91804641      
-121.869636841      
-1307.20149347      
-121.829985799      
-1306.92645584      
-121.869551954      
-1307.20685608      
-121.80168291       
-1307.18670446      
-121.852102367      
-1307.08454167      
-121.794104584      
-1307.08941544      
-121.769837536      
-1307.29523954      
-121.828822787      
-1306.72629741      
-121.797781222      
-1307.33624822      
-121.806965335      
-1307.08718504      
-121.869524875      
-1306.56860787      
-121.757711995      
-1307.12905942      
-121.844980241      
-1307.06890827      
-121.851800463      
-1307.06954744      
-121.821202939      
-1306.93894153      
-121.81173834       
-1306.76223745      
-121.899687487      
-1307.29570883      
-121.730089589      
-1307.39290284      
-121.77531626       
-1306.98840174      
-121.838849232      
-1306.7671787       
-121.767791532      
-1307.12424841      
-121.861800051      
-1306.9446454       
-121.831432123      
-1307.39187104      
-121.787367729      
-1306.82297118      
-121.797675825      
-1307.24305692      
-121.826911265      
-1306.86166822      
-121.820752292      
-1307.21482768      
-121.868141004      
-1307.14847009      
-121.742852723      
-1307.07913835      
-121.803251518      
-1307.13768624      
-121.72935198       
-1307.23207768      
-121.875210235      
-1307.08006735      
-121.76232074       
-1306.92812554      
-121.819239909      
-1307.04550369      
-121.816019667      
-1306.96942785      
-121.820541975      
-1307.11762415      
-121.81468612       
-1307.02563629      
-121.833411587      
-1307.00647111      
-121.82365582       
-1307.01914033      
-121.794257737      
-1306.85618114      
-121.794811832      
-1307.07817951      
-121.802359524      
-1307.1961173       
-121.838563367      
-1306.88853776      
-121.854253188      
-1307.25023845      
-121.848975226      
-1306.98952184      
-121.799766183      
-1306.95636607      
-121.852741037      
-1307.004019        
-121.734300886      
-1306.84159877      
-121.883836332      
-1307.24822624      
-121.783072775      
-1306.83089621      
-121.84605734       
-1307.31518649      
-121.837569516      
-1306.98814866      
-121.793700457      
-1306.94232114      
-121.788442112      
-1307.01176773      
-121.847238798      
-1306.67592099      
-121.747853335      
-1307.56307558      
-121.919679239      
-1306.21041533      
-284.189478633      
-1128.98773991      
-284.404871688      
-1127.99618173      
-284.371277276      
-1128.08928307      
-284.30198712       
-1128.03376471      
-284.284314508      
-1128.17278056      
-284.281111495      
-1128.45698219      
-284.325428106      
-1128.27033037      
-284.242561414      
-1128.09950843      
-284.421747676      
-1128.23414115      
-284.160353343      
-1128.22081136      
-284.349880082      
-1128.13467617      
-284.386546867      
-1128.20116528      
-284.430505176      
-1128.1948872       
-284.238843102      
-1128.26799147      
-284.418917905      
-1128.06887123      
-284.300360623      
-1128.21942583      
-284.324401187      
-1128.09113217      
-284.247854302      
-1128.30803774      
-284.298498921      
-1128.36611891      
-284.36218037       
-1128.08464255      
-284.27215873       
-1128.16414204      
-284.304853392      
-1128.32103225      
-284.361560346      
-1128.32840742      
-284.334667656      
-1128.18562985      
-284.262847098      
-1128.16425862      
-284.258815047      
-1128.22876716      
-284.319797648      
-1128.43040155      
-284.263823967      
-1128.27641428      
-284.241596711      
-1128.04786224      
-284.371731984      
-1128.2016755       
-284.341247641      
-1128.38882237      
-284.32538668       
-1128.00681507      
-284.171449223      
-1128.03006753      
-284.334602858      
-1128.44130723      
-284.384858791      
-1127.86307309      
-284.268872574      
-1128.32807489      
-284.379091283      
-1128.08935696      
-284.288024237      
-1128.33381714      
-284.342437743      
-1127.96688315      
-284.280106377      
-1128.05786873      
-284.328508297      
-1128.38770002      
-284.300184498      
-1128.2259183       
-284.396287934      
-1128.09229246      
-284.305299246      
-1128.05612271      
-284.279496474      
-1128.38764266      
-284.295251339      
-1128.11254323      
-284.267284212      
-1128.17437954      
-284.312894999      
-1128.26575346      
-284.349448262      
-1128.2689171       
-284.315419094      
-1127.99718693      
-284.469772469      
-1128.20412351      
-284.172738906      
-1128.27138167      
-284.372406424      
-1127.85924518      
-284.403335181      
-1128.46029312      
-284.239243552      
-1128.29292029      
-284.369881532      
-1128.09670078      
-284.230971717      
-1128.20748783      
-284.322257249      
-1128.36910793      
-284.413272212      
-1128.04880988      
-284.259981168      
-1128.14170328      
-284.258297095      
-1128.21132853      
-284.414621475      
-1128.05477575      
-284.409855897      
-1128.45443256      
-284.267310962      
-1128.23397598      
-284.316196745      
-1128.34334795      
-284.17238526       
-1128.1887018       
-284.407726092      
-1127.90655724      
-284.291053531      
-1128.25257183      
-284.349396875      
-1128.20709639      
-284.278539259      
-1128.04809294      
-284.283876422      
-1128.16502766      
-284.321960638      
-1128.49772306      
-284.307054295      
-1128.19607716      
-284.347687205      
-1127.92419313      
-284.323079348      
-1128.02105764      
-284.358474954      
-1128.39860113      
-284.291990413      
-1128.17287961      
-284.316277431      
-1128.20247315      
-284.309863253      
-1128.16883343      
-284.285784014      
-1128.24610267      
-284.304128129      
-1128.14408864      
-284.270498032      
-1128.16444177      
-284.355282384      
-1128.30660622      
-284.266888724      
-1128.08855766      
-284.318336092      
-1128.38317033      
-284.378448447      
-1128.0987159       
-284.186933578      
-1128.26205591      
-284.309850648      
-1127.99665754      
-284.315464838      
-1128.46243274      
-284.261622956      
-1127.96615083      
-284.36345765       
-1128.39938644      
-284.263491402      
-1128.24799496      
-284.364607114      
-1128.04249389      
-284.268775871      
-1128.46647002      
-284.331963655      
-1127.94838677      
-284.312362691      
-1128.05604553      
-284.33049475       
-1128.03105058      
-284.393810149      
-1128.04907137      
-283.946855496      
-1128.57082511      
-284.55039038       
-1127.49265576      
-338.96910761       
-925.426350855      
-339.345403482      
-924.917588742      
-339.198117372      
-924.950627953      
-339.272349251      
-924.832585404      
-339.203934771      
-924.961804921      
-339.076829023      
-924.888022739      
-339.20877406       
-924.804972808      
-339.28654303       
-924.924249299      
-339.155733399      
-924.948097307      
-339.180762718      
-924.943793893      
-339.269679248      
-924.872435212      
-339.142641706      
-925.039589603      
-339.16069273       
-925.106539344      
-339.209848716      
-924.882793306      
-339.28934411       
-924.795830905      
-339.114799639      
-925.039643886      
-339.222464757      
-924.957583672      
-339.154254773      
-925.05599793       
-339.143678993      
-924.929871243      
-339.202891664      
-925.027271861      
-339.228963531      
-925.007586595      
-339.23904061       
-924.883747954      
-339.193786007      
-924.866360426      
-339.185449411      
-924.975237218      