# vtk DataFile Version 3.0
PyPan results file. Generated by PyPan, USU AeroLab (c) 2020.
ASCII
DATASET POLYDATA
POINTS 4902 float
-60.6898384094      -10.3317804337      -1.58007605933e-05  
-60.612159729       -10.3317804337      -2.47208499908      
-60.612159729       -10.3317804337      2.47205305099       
-60.612159729       -7.85971021652      -1.58007605933e-05  
-60.6121482849      -12.803850174       -1.58007605933e-05  
-60.5346183777      -12.7989702225      -2.47208499908      
-60.5346183777      -12.7989702225      2.47205305099       
-60.5346183777      -7.86458778381      -2.47208499908      
-60.5346183777      -7.86458778381      2.47205305099       
-60.3793983459      -10.3317804337      4.9343662262        
-60.3793983459      -5.39739704132      -1.58007605933e-05  
-60.3793907166      -15.2661600113      -1.58007605933e-05  
-60.3793907166      -10.3317804337      -4.93439722061      
-60.3023300171      -7.87920284271      4.9343662262        
-60.3023300171      -5.40713405609      -2.47208499908      
-60.3023300171      -5.40713405609      2.47205305099       
-60.302318573       -15.2564201355      -2.47208499908      
-60.302318573       -15.2564201355      2.47205305099       
-60.302318573       -12.7843503952      -4.93439722061      
-60.302318573       -12.7843503952      4.9343662262        
-60.302318573       -7.87920284271      -4.93439722061      
-60.0713996887      -15.2272500992      4.9343662262        
-60.0713996887      -5.43630599976      -4.93439722061      
-60.0713996887      -5.43630599976      4.9343662262        
-60.0713882446      -15.2272500992      -4.93439722061      
-59.9924888611      -17.7089996338      -1.58007605933e-05  
-59.9924888611      -10.3317804337      -7.37723588943      
-59.9924888611      -10.3317804337      7.37720489502       
-59.9924888611      -2.95455789566      -1.58007605933e-05  
-59.916179657       -17.6944408417      -2.47208499908      
-59.916179657       -17.6944408417      2.47205305099       
-59.916179657       -12.7600603104      7.37720489502       
-59.916179657       -7.90349721909      -7.37723588943      
-59.916179657       -7.90349721909      7.37720489502       
-59.916179657       -2.96911501884      -2.47208499908      
-59.916179657       -2.96911501884      2.47205305099       
-59.9161682129      -12.7600603104      -7.37723588943      
-59.6875495911      -5.48479795456      7.37720489502       
-59.6875495911      -3.01272988319      -4.93439722061      
-59.6875495911      -3.01272988319      4.9343662262        
-59.687538147       -17.6508293152      4.9343662262        
-59.687538147       -15.1787595749      7.37720489502       
-59.687538147       -5.48479890823      -7.37723588943      
-59.6875305176      -17.6508293152      -4.93439722061      
-59.6875305176      -15.1787595749      -7.37723588943      
-59.452960968       -10.3317804337      9.79092884064       
-59.452960968       -0.540833473206     -1.58007605933e-05  
-59.4529495239      -20.1227207184      -1.58007605933e-05  
-59.4529495239      -10.3317804337      -9.79096031189      
-59.3777198792      -7.93737411499      9.79092884064       
-59.3777198792      -0.560153007507     -2.47208499908      
-59.3777198792      -0.560153007507     2.47205305099       
-59.3777084351      -12.7261800766      9.79092884064       
-59.3777084351      -7.93737411499      -9.79096031189      
-59.3777008057      -20.1033992767      -2.47208499908      
-59.3777008057      -20.1033992767      2.47205305099       
-59.3777008057      -12.7261800766      -9.79096031189      
-59.3074989319      -3.08522796631      7.37720489502       
-59.3074913025      -17.5783290863      7.37720489502       
-59.3074913025      -3.08523011208      -7.37723588943      
-59.3074798584      -17.5783290863      -7.37723588943      
-59.1522712708      -15.1111402512      9.79092884064       
-59.1522712708      -5.55241918564      9.79092884064       
-59.1522712708      -0.61803817749      -4.93439722061      
-59.1522712708      -0.618037223816     4.9343662262        
-59.1522598267      -20.0455207825      -4.93439722061      
-59.1522598267      -20.0455207825      4.9343662262        
-59.1522598267      -15.1111402512      -9.79096031189      
-59.1522598267      -5.55242013931      -9.79096031189      
-58.7775192261      -3.18632602692      9.79092884064       
-58.7775192261      -0.714259088039     -7.37723588943      
-58.7775192261      -0.714257180691     7.37720489502       
-58.7775115967      -19.949300766       7.37720489502       
-58.7775115967      -17.477230072       9.79092884064       
-58.7775115967      -3.18632698059      -9.79096031189      
-58.7775001526      -19.949300766       -7.37723588943      
-58.7775001526      -17.477230072       -9.79096031189      
-58.7629394531      -10.3317804337      12.166009903        
-58.7629394531      1.8342499733        -1.58007605933e-05  
-58.7629318237      -10.3317804337      -12.1660404205      
-58.7629203796      -22.4978103638      -1.58007605933e-05  
-58.6890602112      1.81024503708       -2.47208499908      
-58.6890602112      1.81024503708       2.47205305099       
-58.6890487671      -12.682849884       12.166009903        
-58.6890487671      -7.98070001602      12.166009903        
-58.6890411377      -22.4738006592      -2.47208499908      
-58.6890411377      -22.4738006592      2.47205305099       
-58.6890411377      -12.682849884       -12.1660404205      
-58.6890411377      -7.9807009697       -12.1660404205      
-58.4676895142      -5.63890218735      12.166009903        
-58.4676895142      1.73831701279       -4.93439722061      
-58.4676895142      1.73831796646       4.9343662262        
-58.4676818848      -15.0246496201      12.166009903        
-58.4676818848      -5.63890314102      -12.1660404205      
-58.4676704407      -22.4018707275      -4.93439722061      
-58.4676704407      -22.4018707275      4.9343662262        
-58.4676704407      -15.0246496201      -12.1660404205      
-58.254940033       -0.848432481289     9.79092884064       
-58.2549285889      -19.815120697       9.79092884064       
-58.2549285889      -0.848434388638     -9.79096031189      
-58.2549209595      -19.815120697       -9.79096031189      
-58.0997200012      -3.31562399864      12.166009903        
-58.0997200012      1.61875796318       7.37720489502       
-58.0997085571      -17.3479309082      12.166009903        
-58.0997085571      -3.31562495232      -12.1660404205      
-58.0997085571      1.61875605583       -7.37723588943      
-58.0997009277      -22.2823104858      -7.37723588943      
-58.0997009277      -22.2823104858      7.37720489502       
-58.0997009277      -17.3479309082      -12.1660404205      
-57.9251403809      -10.3317804337      14.4930801392       
-57.9251403809      4.16132116318       -1.58007605933e-05  
-57.9251289368      -24.8248691559      -1.58007605933e-05  
-57.9251289368      -10.3317804337      -14.4931097031      
-57.8529090881      -12.6302499771      14.4930801392       
-57.8529090881      -8.03330612183      14.4930801392       
-57.8529090881      4.13272190094       -2.47208499908      
-57.8529090881      4.13272190094       2.47205305099       
-57.8529014587      -24.7962799072      -2.47208499908      
-57.8529014587      -24.7962799072      2.47205305099       
-57.8529014587      -8.03330612183      -14.4931097031      
-57.8528900146      -12.6302499771      -14.4931097031      
-57.6365013123      -5.74390506744      14.4930801392       
-57.6365013123      4.04703903198       4.9343662262        
-57.6364898682      -24.7105903625      4.9343662262        
-57.6364898682      -14.9196500778      14.4930801392       
-57.6364898682      -5.74390602112      -14.4931097031      
-57.6364898682      4.04703712463       -4.93439722061      
-57.6364784241      -24.7105903625      -4.93439722061      
-57.6364784241      -14.9196500778      -14.4931097031      
-57.5865898132      -1.02003705502      -12.1660404205      
-57.5865898132      -1.02003502846      12.166009903        
-57.5865898132      1.45203197002       -9.79096031189      
-57.5865898132      1.45203399658       9.79092884064       
-57.5865783691      -22.1155891418      9.79092884064       
-57.5865783691      -19.6435203552      12.166009903        
-57.5865707397      -22.1155891418      -9.79096031189      
-57.5865707397      -19.6435203552      -12.1660404205      
-57.2767601013      -3.4726099968       14.4930801392       
-57.2767601013      3.90460705757       -7.37723588943      
-57.2767601013      3.90460991859       7.37720489502       
-57.2767486572      -24.5681591034      7.37720489502       
-57.2767486572      -17.1909408569      14.4930801392       
-57.2767486572      -3.47261190414      -14.4931097031      
-57.2767410278      -24.5681591034      -7.37723588943      
-57.2767410278      -17.1909408569      -14.4931097031      
-56.9428787231      -10.3317804337      16.762960434        
-56.9428787231      6.43119382858       -1.58007605933e-05  
-56.9428710938      -10.3317804337      -16.7629909515      
-56.9428596497      -27.0947494507      -1.58007605933e-05  
-56.9303398132      1.23880195618       -12.1660404205      
-56.9303398132      1.23880505562       12.166009903        
-56.9303283691      -21.9023609161      12.166009903        
-56.9303207397      -21.9023609161      -12.1660404205      
-56.8725891113      -8.09498214722      16.762960434        
-56.8725891113      6.39811706543       -2.47208499908      
-56.8725891113      6.39811706543       2.47205305099       
-56.8725814819      -12.568570137       16.762960434        
-56.8725700378      -27.0616703033      -2.47208499908      
-56.8725700378      -27.0616703033      2.47205305099       
-56.8725700378      -12.568570137       -16.7629909515      
-56.8725700378      -8.09498214722      -16.7629909515      
[...]
CELL_DATA 9800
SCALARS pressure_coefficient float 1
LOOKUP_TABLE default
0.996730629758      
0.996730637689      
0.996730639652      
0.996730635375      
0.996730627987      
0.99673062942       
0.996730632984      
0.996730638948      
0.996730643334      
0.996730618826      
0.996730605416      
0.996730649263      
0.996730624383      
0.996730637013      
0.996730627673      
0.996730642527      
0.996730641063      
0.996730621807      
0.996730621821      
0.996730642673      
0.996730624974      
0.996730638051      
0.996730639128      
0.996730643298      
0.996730651392      
0.996730646618      
0.996730636702      
0.996730622011      
0.996730633807      
0.99673063367       
0.996730633892      
0.996730600969      
0.996730601378      
0.996730566419      
0.996730620981      
0.996730630186      
0.996730633575      
0.996730605352      
0.99673060174       
0.996730603604      
0.996730634222      
0.996730605595      
0.996730606832      
0.996730605547      
0.996730600866      
0.996730592168      
0.996730586293      
0.996730614393      
0.996730603605      
0.996730612416      
0.996730608879      
0.996730604067      
0.996730618041      
0.996730611971      
0.996730558864      
0.996730583633      
0.996730606616      
0.996730584938      
0.996730587035      
0.996730515039      
0.996730571102      
0.99673059855       
0.99673055172       
0.996730605425      
0.996730613506      
0.996730624546      
0.996730612884      
0.996730601086      
0.996730607337      
0.996730614429      
0.996730612053      
0.996730605497      
0.996730614335      
0.996730607597      
0.99673059511       
0.99673059137       
0.996730605306      
0.996730602442      
0.99673059377       
0.996730599737      
0.996730627906      
0.996730619505      
0.996730615164      
0.996730627322      
0.99673061618       
0.996730605816      
0.996730625434      
0.996730626742      
0.996730611653      
0.996730613307      
0.996730616376      
0.996730628478      
0.996730629538      
0.996730620774      
0.996730621742      
0.996730628309      
0.9967306275        
0.99673061765       
0.996730615007      
0.996730623245      
0.981165532568      
0.978533637887      
0.981165558007      
0.978533594441      
0.981165532133      
0.97853365885       
0.981165527296      
0.978533659868      
0.981165501045      
0.978533619589      
0.981165523546      
0.978533553539      
0.981165513997      
0.978533638074      
0.981165568855      
0.97853361959       
0.981165627312      
0.978533720061      
0.98116550531       
0.978533867586      
0.981165623621      
0.978533433854      
0.981165575212      
0.978533741367      
0.981165597532      
0.978533720476      
0.98116544957       
0.978533828896      
0.981165486994      
0.978533593799      
0.981165606434      
0.978533571257      
0.981165649215      
0.978533671702      
0.981165582904      
0.978533647267      
0.981165618121      
0.97853359996       
0.981165556112      
0.978533726431      
0.981165663109      
0.978533722325      
0.981165443352      
0.978533459366      
0.981165648859      
0.978533777571      
0.981165692293      
0.978533533841      
0.981165526337      
0.978533824644      
0.981165703374      
0.978533704355      
0.981165619548      
0.978533930012      
0.981165553311      
0.978533562194      
0.981165682012      
0.978533723117      
0.981165587584      
0.97853355924       
0.98116566275       
0.978533702606      
0.981165507987      
0.978533753269      
0.981165392079      
0.97853352786       
0.981165467642      
0.978533801417      
0.981165562134      
0.978533709189      
0.981165677062      
0.978533703153      
0.981165511709      
0.978533818297      
0.981165568507      
0.978533688169      
0.981165523789      
0.97853365112       
0.981165553846      
0.978533607701      
0.981165634278      
0.9785337251        
0.981165642023      
0.978533713486      
0.981165452144      
0.978533736161      
0.98116548529       
0.97853381941       
0.981165645649      
0.978533712952      
0.981165412309      
0.978533813159      
0.981165504684      
0.97853361853       
0.98116560999       
0.978533731189      
0.981165663391      
0.978533753395      
0.981165435921      
0.978533560761      
0.981165657681      
0.978533821228      
0.9811656233        
0.978533663163      
0.981165630632      
0.978533756036      
0.98116551143       
0.978533882054      
0.981165617289      
0.978533643046      
0.981165596653      
0.978533444337      
0.981165494532      
0.978533800459      
0.981165530539      
0.978533739008      
0.981165480311      
0.978533725512      
0.981165644749      
0.978533818943      
0.98116553441       
0.978533669069      
0.981165595022      
0.978533725463      
0.981165618136      
0.978533962919      
0.981165582714      
0.978534028291      
0.981165623167      
0.978533838209      
0.981165573713      
0.978533855155      
0.98116553435       
0.978533833142      
0.981165595779      
0.978533748484      
0.981165532207      
0.97853382038       
0.981165681897      
0.978533666136      
0.981165735042      
0.978533854675      
0.98116556494       
0.978533717703      
0.981165577404      
0.978533777835      
0.981165683694      
0.978533733996      
0.981165480413      
0.978533618486      
0.981165436323      
0.97853356062       
0.981165611513      
0.978533535432      
0.981165655448      
0.978533780111      
0.98116551913       
0.978533608474      
0.981165626922      
0.978533666193      
0.981165356402      
0.978533804537      
0.98116551811       
0.978533897408      
0.981165642214      
0.97853372372       
0.981165564071      
0.978533751874      
0.981165517926      
0.97853376703       
0.981165658635      
0.978533658651      
0.981165656211      
0.978533592676      
0.981165566418      
0.978533789285      
0.98116550533       
0.978533721502      
0.98116546748       
0.978533679052      
0.981165582338      
0.978533630777      
0.981165526546      
0.978533772775      
0.981165561625      
0.978533762293      
0.981165574105      
0.978533762088      
0.981165357808      
0.978533762624      
0.981165561111      
0.978533776649      
0.981165586428      
0.978533811298      
0.981165349717      
0.978533767003      
0.981165368261      
0.97853363968       
0.981165522875      
0.978533654469      
0.951005758653      
0.944880114914      
0.951005822515      
0.94488022435       
0.951005797097      
0.944880251678      
0.951005763284      
0.94488036915       
0.951005812677      
0.944880316581      
0.95100579085       
0.944880279806      
0.951005671705      
0.944880074577      
0.951005836307      
0.944880208757      
0.951006039474      
0.944880284346      
0.951005958348      
0.944880486966      
0.951006033999      
0.944880498103      
0.951005949698      
0.944879841027      
0.951006136945      
0.944880196394      
0.951005960602      
0.94488056128       
0.951005884854      
0.944880694716      
0.951005855915      
0.944880528049      
0.951005730916      
0.944880460324      
0.951006049127      
0.944880030572      
0.951006085065      
0.944880394458      
0.951006027461      
0.944880230309      
0.95100567162       
0.944880201262      
0.951005682166      
0.944879947261      
0.951006060857      
0.944880230067      
0.951005513476      
0.944880415902      
0.951005833447      
0.944879695121      
0.951005895082      
0.944879959179      
0.951005992412      
0.94487966722       
0.951005785771      
0.944880490238      
0.951006022202      
0.944880210377      
0.951005717437      
0.944880558766      
0.951005622635      
0.944880017687      
0.951005945809      
0.944880577346      
0.951005889119      
0.944879775443      
0.951005582872      
0.944880873935      
0.951005847267      
0.94488034175       
0.951005843267      
0.944880772665      
0.951005602954      
0.94488007615       
0.95100565213       
0.944880065729      
0.951006273466      
0.944880685947      
0.951005898096      
0.944881039882      
0.951005849972      
0.944880708728      
0.951005860597      
0.944880767702      
0.951005993399      
0.94488007051       
0.9510060159        
0.944880635229      
0.951005725282      
0.944879729759      
0.951006007576      
0.944880274779      
0.951005869361      
0.944880558264      
0.951005736381      
0.944880428349      
0.951005967437      
0.944880110931      
0.951005339555      
0.94488020888       
0.951005958218      
0.944880233608      
0.951005722443      
0.944880175349      
0.95100611039       
0.944879999514      
0.951006045523      
0.944880359513      
0.951005705875      
0.944880082271      
0.951005968735      
0.944880362447      
0.951006047129      
0.944880384744      
0.951006141206      
0.944880766634      
0.951005939094      
0.944880910315      
0.951005679154      
0.944880799178      
0.951006127819      
0.944880272869      
0.951005738065      
0.944880131539      
0.951006073597      
0.944880717178      
0.951006028741      
0.944880535958      
0.95100603717       
0.944880535678      
0.951005795185      
0.944879875673      
0.951006094215      
0.944880814835      
0.951006077454      
0.944880170428      
0.951005641887      
0.94488061189       
0.951005843432      
0.944880116765      
0.951005918118      
0.944880452687      
0.951006063006      
0.944879807185      
0.951005793891      
0.944880252973      
0.951005935153      
0.94487947944       
0.951005775327      
0.944880381822      
0.951005688208      
0.944880386724      
0.951005626608      
0.944880697109      
0.95100602637       
0.944879956104      
0.951006073688      
0.944880406726      
0.951005691349      
0.944880782073      
0.951006003298      
0.944880227419      
0.951006189394      
0.944880535278      
0.951005954327      
0.944880752694      
0.951005856987      
0.944880349169      
0.951005550693      
0.944879924855      
0.951006191836      
0.944880467079      
0.951005707694      
0.944880834871      
0.951006082526      
0.944880251666      
0.951005948385      
0.944880570298      
0.951005940331      
0.944880593639      
0.951006020557      
0.944880249477      
0.951006154092      
0.944880673997      
0.951005886329      
0.944880810869      
0.951006078337      
0.944880493353      
0.95100606204       
0.944880699613      
0.951006120707      
0.944880580283      
0.9510061339        
0.944880594332      
0.95100581074       
0.944880727692      
0.95100588145       
0.944880399599      
0.95100574894       
0.94488037982       
0.903080016211      
0.894595110144      
0.90308018427       
0.894594925729      
0.903080178464      
0.894595733194      
0.903080289912      
0.894595695057      
0.903080076164      
0.894594880929      
0.90307979643       
0.894594721221      
0.903079840927      
0.89459439356       
0.903080254799      
0.894594103391      
0.903080669647      
0.894594775666      
0.903079893206      
0.894594947719      
0.903079473991      
0.894594736681      
0.903079707648      
0.894594186771      
0.903079704271      
0.894595510223      
0.903080078246      
0.89459348152       
0.903080723055      
0.894594361016      
0.90308024589       
0.89459517312       
0.90308054333       
0.894593919249      
0.903080484708      
0.894595135928      
0.903080265679      
0.894595005531      
0.90308013611       
0.894595271151      
0.903080440378      
0.894595702882      
0.903079971723      
0.89459497016       
0.903080312914      
0.894593571485      
0.903079563548      
0.894594576042      
0.903080212766      
0.894595132686      
0.903080639489      
0.89459359361       
0.903080163455      
0.894593758996      
0.903080137588      
0.894593592359      
0.903080162432      
0.894594930886      
0.903080404726      
0.894594098539      
0.903080675141      
0.894595495323      
0.903080153674      
0.894595378271      
0.903079882142      
0.89459467035       
0.903079724942      
0.894594114641      
0.903080173131      
0.894595406202      
0.903079323233      
0.894594388788      
0.903080361901      
0.894594793695      
0.903080011421      
0.89459532333       
0.903080793476      
0.894594163048      
0.903080624003      
0.894594538408      
0.903080287159      
0.894595029441      
0.903080197855      
0.894595658586      
0.903079484172      
0.894595815685      
0.903079408339      
0.894594814943      
0.903080393143      
0.894594184745      
0.90308051255       
0.894595267016      
0.903080107323      
0.894594445093      
0.903080269056      
0.894595456297      
0.903080502845      
0.894593886804      
0.903080040691      
0.894594427862      
0.903079560795      
0.894594759352      
0.903080434861      
0.894593787887      
0.903079531037      
0.894594992336      
0.903080147056      
0.894594970747      
0.903080792353      
0.894594597999      
0.90308000009       
0.89459480416       
0.903080402233      
0.89459480168       
0.903079453548      
0.894594826174      
0.903080774169      
0.894594468542      
0.903080517169      
0.89459492053       
0.903080046843      
0.894595999358      
0.903079794523      
0.894593794618      
0.903080520369      
0.89459543842       
0.903080652625      
0.894594579414      
0.90308001157       
0.894593828373      
0.903080516224      
0.89459432985       
0.903080296234      
0.894595141109      
0.903080233503      
0.89459478436       
0.903080622477      
0.894594546189      
0.903080603265      
0.894595320138      
0.90308032308       
0.894595568788      
0.903080410794      
0.894594527187      
0.903080285205      
0.894594279837      
0.903079996804      
0.894596330242      
0.903079820781      
0.894594819272      
0.903080222922      
0.894594809736      
0.903080320632      
0.894594919197      
0.903079848742      
0.894593457264      
0.903080302615      
0.894595139943      
0.903080738452      
0.894594820069      
0.903080189904      
0.894594315721      
0.903080069957      
0.894595030254      
0.903080010691      
0.894594355425      
0.903080653888      
0.894594230178      
0.903080364687      
0.894595441941      
0.903080323362      
0.894595616772      
0.903080407459      
0.89459431582       
0.903079646165      
0.894595000043      
0.903080562924      
0.894594700639      
0.903079688421      
0.894594142484      
0.903080119457      
0.894594332506      
0.903080662756      
0.89459525284       
0.903080090047      
0.894594371305      
0.903080437508      
0.894595392875      
0.903080223109      
0.894595051123      
0.90308015068       
0.894594882395      
0.903080116277      
0.894594248302      
0.903080577659      
0.894594106334      
0.903080232056      
0.894593781868      
0.903079368114      
0.894594891181      
0.839393334082      
0.828649588951      
0.839393515022      
0.828649911668      
0.839393089538      
0.828650023424      
0.839392889033      
0.828648528903      
0.839392989251      
0.828648481071      
0.839393456804      
0.828648822266      
0.839392750516      
0.828650345636      
0.839393026157      
0.828649633559      
0.839393452216      
0.828649238222      
0.839392382403      
0.82864824364       
0.839393953251      
0.828647661373      
0.839394171122      
0.828648350057      
0.839391698371      
0.828650795936      
0.839393157172      
0.82864910631       
0.839393349575      
0.828649088808      
0.839391927106      
0.828648418377      
0.839392539756      
0.828649773897      
0.83939370369       
0.828647728702      
0.839394134896      
0.828650272328      
0.839392846496      
0.828650260996      
0.839392519123      
0.828648649181      
0.839394460198      
0.828649435994      
0.8393934311        
0.828650879021      
0.839392549235      
0.828649080721      
0.839393484783      
0.828648754768      
0.839392822777      
0.828650351498      
0.83939310938       
0.828649733734      
0.839393611779      
0.828648088187      
0.839392399446      
0.828647214148      
0.83939328465       
0.828650284273      
0.839392868072      
0.828648731304      
0.839392546836      
0.828648037795      
0.839391434249      
0.828649983525      
0.839393671103      
0.828649233397      
0.839391843647      
0.828650162714      
0.839393748333      
0.828649536109      
0.839392017337      
0.828648457543      
0.839393262878      
0.82864942          
0.839392099135      
0.828648532707      
0.839393111413      
0.82864822684       
0.839392057478      
0.828649117185      
0.839393389181      
0.828649614518      
0.839392335656      
0.828649243578      
0.839392865156      
0.828650177582      
0.839392963352      
0.828648935875      
0.839392246395      
0.828649546395      
0.839394400893      
0.828649971827      
0.839392152216      
0.828648508298      
0.839392937975      
0.828649830173      
0.839393699914      
0.82864795222       
0.839392565502      
0.828649527423      
0.839392406858      
0.828648918366      
0.839393929971      
0.828650063866      
0.839392765824      
0.82864982274       
0.839393880695      
0.828649503805      
0.839393223524      
0.828649813785      
0.839393510706      
0.828650120141      
0.839392633401      
0.828649968569      
0.839392630921      
0.828648343771      
0.839393964204      
0.828649880163      
0.839393934805      
0.828648549438      
0.839394063522      
0.828649142674      
0.839394043041      
0.828648271722      
0.839394024115      
0.828649732839      
0.839393193841      
0.828648665855      
0.839393054221      
0.828649872284      
0.839393105312      
0.828648336853      
0.839393718974      
0.828648724476      
0.839393070998      
0.828649665754      
0.839393901806      
0.828649555367      
0.839393594812      
0.828649673084      
0.839393586284      
0.828649292313      
0.839393367495      
0.828649920332      
0.839393211715      
0.828647524086      
0.839393143582      
0.828648532193      
0.839393924987      
0.828650671647      
0.839393248532      
0.828650299182      
0.839392600605      
0.828649304285      
0.83939404676       
0.828648393249      
0.839392773183      
0.828649811791      
0.839392304821      
0.828648758952      
0.839393370327      
0.828650429345      
0.839392248136      
0.828649369144      
0.839393255535      
0.828650120195      
0.839394647755      
0.828649824762      
0.839393795222      
0.828649680026      
0.839392714783      
0.828648830041      
0.83939289318       
0.828649891708      
0.839393634281      
0.828650101409      
0.839393434788      
0.828648342868      
0.839393316287      
0.828649830037      
0.839393514806      
0.828649396043      
0.839393412234      
0.828649424255      
0.839393574975      
0.82864892975       
0.839393680001      
0.828649341321      
0.839392765586      
0.828649372424      
0.839392659387      
0.828650907896      
0.839392515891      
0.828648656311      
0.839392804217      
0.828648528418      
0.839393288593      
0.828648454589      
0.76088190412       
0.748021130044      
0.760882412383      
0.748019557178      
0.760882149856      
0.748020018632      
0.760881000474      
0.748020690814      
0.760880572365      
0.748020786511      
0.760880887385      
0.748020244828      
0.760882914629      
0.748018594549      
0.760880548596      
0.748020013413      
0.760881188172      
0.748019013931      
0.760880161618      
0.74802102773       
0.76088130099       
0.748020038612      
0.760882302884      
0.748018363277      
0.760882035885      
0.748021805066      
0.760882407642      
0.748019540259      
0.760881087597      
0.748019246052      
0.760880615083      
0.748019504983      
0.760882096991      
0.748019732504      
0.760882714786      
0.748021152142      
0.760881327597      
0.74801880283       
0.760880883108      
0.748021235398      
0.760881565005      
0.74802233935       
0.760881946203      
0.74801939338       
0.760879751413      
0.748019531761      
0.760882208251      
0.748019511949      