# vtk DataFile Version 3.0
PyPan results file. Generated by PyPan, USU AeroLab (c) 2020.
ASCII
DATASET POLYDATA
POINTS 492 float
-0.75               0.0                 0.0                 
-0.814537763596     -0.0978869646788    -0.00458567403257   
-0.838710069656     -0.0978869646788    0.0                 
-0.725528240204     0.0                 -0.00464247865602   
-0.744386970997     -0.0978869646788    -0.0137440674007    
-0.654508471489     0.0                 -0.0139143215492    
-0.635124564171     -0.0978869646788    -0.0265759583563    
-0.543892621994     0.0                 -0.0269051659852    
-0.497445940971     -0.0978869646788    -0.0404167473316    
-0.404508501291     0.0                 -0.0409174077213    
-0.344828009605     -0.0978869646788    -0.0522924810648    
-0.25               0.0                 -0.0529402531683    
-0.192210048437     -0.0978869646788    -0.058845769614     
-0.0954915061593    0.0                 -0.0595747157931    
-0.0545314066112    -0.0978869646788    -0.057007946074     
0.0438926257193     0.0                 -0.0577141307294    
0.0547309853137     -0.0978869646788    -0.0454854853451    
0.154508501291      0.0                 -0.0460489317775    
0.124881759286      -0.0978869646788    -0.0255764853209    
0.225528255105      0.0                 -0.0258933138102    
0.149054065347      -0.0978869646788    0.0                 
0.25                0.0                 0.0                 
0.124881759286      -0.0978869646788    0.0255764853209     
0.225528255105      0.0                 0.0258933138102     
0.0547309853137     -0.0978869646788    0.0454854853451     
0.154508501291      0.0                 0.0460489317775     
-0.0545314066112    -0.0978869646788    0.057007946074      
0.0438926257193     0.0                 0.0577141307294     
-0.192210048437     -0.0978869646788    0.058845769614      
-0.0954915061593    0.0                 0.0595747157931     
-0.344828009605     -0.0978869646788    0.0522924810648     
-0.25               0.0                 0.0529402531683     
-0.497445940971     -0.0978869646788    0.0404167473316     
-0.404508501291     0.0                 0.0409174077213     
-0.635124564171     -0.0978869646788    0.0265759583563     
-0.543892621994     0.0                 0.0269051659852     
-0.744386970997     -0.0978869646788    0.0137440674007     
-0.654508471489     0.0                 0.0139143215492     
-0.814537763596     -0.0978869646788    0.00458567403257    
-0.725528240204     0.0                 0.00464247865602    
-1.0728533268       -0.381966024637     -0.00442082015797   
-1.09615671635      -0.381966024637     0.0                 
-1.00522446632      -0.381966024637     -0.0132499719039    
-0.899890065193     -0.381966024637     -0.0256205573678    
-0.767160952091     -0.381966024637     -0.0389637760818    
-0.620029568672     -0.381966024637     -0.0504125803709    
-0.472898215055     -0.381966024637     -0.0567302778363    
-0.340169072151     -0.381966024637     -0.0549585260451    
-0.234834641218     -0.381966024637     -0.0438502915204    
-0.167205765843     -0.381966024637     -0.02465701662      
-0.1439024508       -0.381966024637     0.0                 
-0.167205765843     -0.381966024637     0.02465701662       
-0.234834641218     -0.381966024637     0.0438502915204     
-0.340169072151     -0.381966024637     0.0549585260451     
-0.472898215055     -0.381966024637     0.0567302778363     
-0.620029568672     -0.381966024637     0.0504125803709     
-0.767160952091     -0.381966024637     0.0389637760818     
-0.899890065193     -0.381966024637     0.0256205573678     
-1.00522446632      -0.381966024637     0.0132499719039     
-1.0728533268       -0.381966024637     0.00442082015797    
-1.4751894474       -0.824429512024     -0.00416405405849   
-1.49713921547      -0.824429512024     0.0                 
-1.41148853302      -0.824429512024     -0.0124803995714    
-1.31227195263      -0.824429512024     -0.0241324882954    
-1.18725192547      -0.824429512024     -0.0367007181048    
-1.04866611958      -0.824429512024     -0.0474845655262    
-0.910080254078     -0.824429512024     -0.0534353218973    
-0.785060167313     -0.824429512024     -0.0517664775252    
-0.685843646526     -0.824429512024     -0.041303422302     
-0.622142732143     -0.824429512024     -0.0232249125838    
-0.600192904472     -0.824429512024     0.0                 
-0.622142732143     -0.824429512024     0.0232249125838     
-0.685843646526     -0.824429512024     0.041303422302      
-0.785060167313     -0.824429512024     0.0517664775252     
-0.910080254078     -0.824429512024     0.0534353218973     
-1.04866611958      -0.824429512024     0.0474845655262     
-1.18725192547      -0.824429512024     0.0367007181048     
-1.31227195263      -0.824429512024     0.0241324882954     
-1.41148853302      -0.824429512024     0.0124803995714     
-1.4751894474       -0.824429512024     0.00416405405849    
-1.98216235638      -1.38196599483      -0.00384051026776   
-2.00240659714      -1.38196599483      0.0                 
-1.92341089249      -1.38196599483      -0.011510681361     
-1.83190345764      -1.38196599483      -0.0222574118525    
-1.71659743786      -1.38196599483      -0.0338490977883    
-1.58877956867      -1.38196599483      -0.0437950491905    
-1.4609618187       -1.38196599483      -0.0492834374309    
-1.3456556797       -1.38196599483      -0.0477442592382    
-1.25414824486      -1.38196599483      -0.0380941741168    
-1.19539678097      -1.38196599483      -0.0214203540236    
-1.175152421        -1.38196599483      0.0                 
-1.19539678097      -1.38196599483      0.0214203540236     
-1.25414824486      -1.38196599483      0.0380941741168     
-1.3456556797       -1.38196599483      0.0477442592382     
-1.4609618187       -1.38196599483      0.0492834374309     
-1.58877956867      -1.38196599483      0.0437950491905     
-1.71659743786      -1.38196599483      0.0338490977883     
-1.83190345764      -1.38196599483      0.0222574118525     
-1.92341089249      -1.38196599483      0.011510681361      
-1.98216235638      -1.38196599483      0.00384051026776    
-2.54414629936      -2.0                -0.00348185910843   
-2.5625             -2.0                0.0                 
-2.49088144302      -2.0                -0.0104357413948    
-2.40791940689      -2.0                -0.0201788749546    
-2.30338144302      -2.0                -0.0306880548596    
-2.1875             -2.0                -0.0397051908076    
-2.07161855698      -2.0                -0.0446810387075    
-1.9670804739       -2.0                -0.0432855971158    
-1.88411867619      -2.0                -0.0345367006958    
-1.83085381985      -2.0                -0.019419984892     
-1.8125             -2.0                0.0                 
-1.83085381985      -2.0                0.019419984892      
-1.88411867619      -2.0                0.0345367006958     
-1.9670804739       -2.0                0.0432855971158     
-2.07161855698      -2.0                0.0446810387075     
-2.1875             -2.0                0.0397051908076     
-2.30338144302      -2.0                0.0306880548596     
-2.40791940689      -2.0                0.0201788749546     
-2.49088144302      -2.0                0.0104357413948     
-2.54414629936      -2.0                0.00348185910843    
-3.10613012314      -2.61803388596      -0.00312320771627   
-3.12259340286      -2.61803388596      0.0                 
-3.05835175514      -2.61803388596      -0.00936080049723   
-2.98393535614      -2.61803388596      -0.018100336194     
-2.89016532898      -2.61803388596      -0.0275270119309    
-2.78622031212      -2.61803388596      -0.0356153286994    
-2.68227553368      -2.61803388596      -0.0400786362588    
-2.58850550652      -2.61803388596      -0.0388269349933    
-2.51408910751      -2.61803388596      -0.0309792235494    
-2.46631073952      -2.61803388596      -0.0174196157604    
-2.44984745979      -2.61803388596      0.0                 
-2.46631073952      -2.61803388596      0.0174196157604     
-2.51408910751      -2.61803388596      0.0309792235494     
-2.58850550652      -2.61803388596      0.0388269349933     
-2.68227553368      -2.61803388596      0.0400786362588     
-2.78622031212      -2.61803388596      0.0356153286994     
-2.89016532898      -2.61803388596      0.0275270119309     
-2.98393535614      -2.61803388596      0.018100336194      
-3.05835175514      -2.61803388596      0.00936080049723    
-3.10613012314      -2.61803388596      0.00312320771627    
-3.6131029129       -3.17557048798      -0.00279966392554   
-3.62786078453      -3.17557048798      0.0                 
-3.57027435303      -3.17557048798      -0.00839108321816   
-3.50356698036      -3.17557048798      -0.0162252597511    
-3.41951084137      -3.17557048798      -0.0246753934771    
-3.32633399963      -3.17557048798      -0.0319258123636    
-3.23315691948      -3.17557048798      -0.0359267517924    
-3.14910078049      -3.17557048798      -0.0348047204316    
-3.08239364624      -3.17557048798      -0.0277699790895    
-3.03956484795      -3.17557048798      -0.0156150581315    
-3.02480697632      -3.17557048798      0.0                 
-3.03956484795      -3.17557048798      0.0156150581315     
-3.08239364624      -3.17557048798      0.0277699790895     
-3.14910078049      -3.17557048798      0.0348047204316     
-3.23315691948      -3.17557048798      0.0359267517924     
-3.32633399963      -3.17557048798      0.0319258123636     
-3.41951084137      -3.17557048798      0.0246753934771     
-3.50356698036      -3.17557048798      0.0162252597511     
-3.57027435303      -3.17557048798      0.00839108321816    
-3.6131029129       -3.17557048798      0.00279966392554    
-4.01543903351      -3.61803388596      -0.00254289805889   
[...]
CELL_DATA 980
SCALARS pressure_coefficient float 1
LOOKUP_TABLE default
0.886825695297      
0.865801465795      
0.942497773545      
0.912821898429      
0.93719441406       
0.923986753209      
0.934828290185      
0.932540969753      
0.938992033108      
0.940179653476      
0.945350956738      
0.947656637442      
0.949338078651      
0.949025758938      
0.936713936673      
0.923902192586      
0.856655322044      
0.858220645345      
0.622121091051      
0.616976486008      
0.591270943034      
0.623299501986      
0.832838336178      
0.855420463318      
0.930995012153      
0.929760904778      
0.95153855724       
0.950435788794      
0.946806447181      
0.945960763914      
0.936694808218      
0.935590661334      
0.924874769631      
0.923315449599      
0.911184718522      
0.909065840065      
0.90043043773       
0.899676974147      
0.855611669232      
0.83268809345       
0.840939584495      
0.84977758004       
0.915912828889      
0.90294593238       
0.919287986792      
0.9116426712        
0.923737824203      
0.919594425787      
0.929928947807      
0.928294785082      
0.937130599874      
0.93588842003       
0.939934785089      
0.938903613666      
0.922886028871      
0.931651410266      
0.865083808092      
0.874422014796      
0.640601687332      
0.617193381221      
0.614547932825      
0.648677248304      
0.863634916322      
0.889380484028      
0.922074489064      
0.936171946399      
0.940888269182      
0.941263455575      
0.938718812678      
0.93643999505       
0.929874407277      
0.927040112599      
0.921313084419      
0.917568851286      
0.914657005378      
0.910745831334      
0.907651809704      
0.910348014671      
0.862612528496      
0.851212751587      
0.820165097771      
0.843891884116      
0.905029215855      
0.901061058493      
0.910295567474      
0.910336812651      
0.91693138953       
0.917245630262      
0.92473690236       
0.925162576837      
0.932238277045      
0.933635952622      
0.934918942612      
0.939856270421      
0.924317773772      
0.932196000562      
0.873816454036      
0.872129336386      
0.644079047699      
0.61623675003       
0.613327413332      
0.649243156346      
0.865359710035      
0.887388547894      
0.925125026101      
0.936432709748      
0.937260044675      
0.94096907716       
0.936055518333      
0.934873098298      
0.929091742836      
0.927068247088      
0.921442774305      
0.919056945751      
0.914424284203      
0.912809800444      
0.906644424097      
0.912259602407      
0.863248487557      
0.855935647674      
0.811606783385      
0.842169948378      
0.901565717188      
0.901499527632      
0.908371130292      
0.912003695594      
0.915927805426      
0.918512993665      
0.92399818937       
0.925679877853      
0.931092767437      
0.93388956833       
0.934045925717      
0.939215650265      
0.926226580197      
0.929852769608      
0.87594558719       
0.868673145552      
0.644890742809      
0.614786095174      
0.611172034793      
0.647586337559      
0.863901249492      
0.884025320598      
0.925253161434      
0.934846895336      
0.936583331735      
0.941162487917      
0.935357748676      
0.935715561943      
0.929636306471      
0.927956553041      
0.922635806689      
0.920188825494      
0.915551612065      
0.914113938812      
0.907287654456      
0.913145644899      
0.864160364274      
0.857624151064      
0.810963888145      
0.840981739372      
0.90263963019       
0.901377374597      
0.910274148417      
0.912251109063      
0.917936773492      
0.918667566981      
0.925173067926      
0.925599051329      
0.930570054486      
0.933699017539      
0.932717181879      
0.938801525708      
0.925667683653      
0.929138787333      
0.875830537745      
0.867934211318      
0.645149971717      
0.614634318994      
0.608987027297      
0.647053664468      
0.861743727389      
0.88338634162       
0.9233936707        
0.934565043129      
0.934451841343      
0.941029976061      
0.933717361042      
0.935316160139      
0.930132221749      
0.927117549177      
0.924743745395      
0.919353497619      
0.918310433401      
0.913637200886      
0.910052545238      
0.912895591688      
0.867349724241      
0.857814453684      
0.812123809776      
0.839224982871      
0.903815404018      
0.899802479362      
0.911293987418      
0.910233689651      
0.918304963185      
0.916417733673      
0.924311284944      
0.924054642796      
0.928268906332      
0.933491426499      
0.930406336673      
0.939868134844      
0.924341758916      
0.931186132966      
0.875323201954      
0.870632691638      
0.645603953943      
0.61653796359       
0.606956471637      
0.64767395192       
0.859733173595      
0.885337621208      
0.921249069278      
0.936183768211      
0.931633910106      
0.941550297534      
0.930579875442      
0.934252922717      
0.92840961314       
0.924550642705      
0.924737268624      
0.916376547196      
0.919454056302      
0.911343526849      
0.91190001098       
0.91145451954       
0.870181581646      
0.85701984176       
0.809804629752      
0.837444270889      
0.902004249918      
0.897751655403      
0.9089763309        
0.907470307446      
0.915545410045      
0.913417815549      
0.921487649258      
0.922075271909      
0.925865443571      
0.933296900023      
0.928835272396      
0.941426265757      
0.923610714025      
0.934154816387      
0.875265216821      
0.874470579326      
0.646224682995      
0.619120593424      
0.605886963292      
0.648546285414      
0.858865935128      
0.887860489985      
0.920199123147      
0.938196768961      
0.930013795383      
0.942230082332      
0.928311874815      
0.933221656684      
0.92580293965       
0.921979425882      
0.922258485382      
0.913340566415      
0.917475642858      
0.90899221138       
0.910646877377      
0.910066446008      
0.869838558443      
0.856450271638      
0.805069500024      
0.835464274117      
0.899105569845      
0.896014323756      
0.905599040948      
0.905254731871      
0.912081475161      
0.911411111497      
0.919015119745      
0.921174008827      
0.925207475901      
0.933492700906      
0.928931722575      
0.942616492952      
0.923844702753      
0.936231150685      
0.875793590105      
0.877150148174      
0.646716757045      
0.621153216253      
0.606521204146      
0.64885409662       
0.859659008107      
0.888844864814      
0.920727473612      
0.938948530972      
0.930360589983      
0.942517953982      
0.928420349171      
0.933073831401      
0.924350107257      
0.921335265169      
0.919510121789      
0.912172993042      
0.914548351292      
0.908049561694      
0.908316098779      
0.90979953964       
0.868465504657      
0.857220746795      
0.806860916811      
0.829626345779      
0.903103987351      
0.892833195436      
0.908098977611      
0.901495453148      
0.912209008937      
0.90909055302       
0.917360203742      
0.920364942802      
0.924138008881      
0.93312224087       
0.929138249297      
0.942834893893      
0.923237453926      
0.937424713462      
0.875723592161      
0.879367959437      
0.646860224639      
0.623816828945      
0.607634085268      
0.647678849221      
0.860179257361      
0.886820415208      
0.92040861511       
0.936533007056      
0.93029383056       
0.940212334689      
0.9277318478        
0.931763452656      
0.922384294273      
0.92117986335       
0.918692697649      
0.911736239544      
0.916122100445      
0.907467282278      
0.912345861523      
0.910740351135      
0.875998960771      
0.861580336531      
0.84090040514       
0.831400876907      
0.9267426262        
0.89482034125       
0.930029215528      
0.916606693285      
0.934169195843      
0.929982890215      
0.937738380201      
0.935729269266      
0.939094624136      
0.938537036897      
0.936337467267      
0.939105680502      
0.921332510311      
0.932676565227      
0.867812863355      
0.882537272921      
0.646610689072      
0.633511513062      
0.599433266831      
0.63821729324       
0.845178753133      
0.87061497814       
0.906286053044      
0.917841502185      
0.925160176227      
0.92927274104       
0.929694323356      
0.932364957014      
0.929696598577      
0.931538552108      
0.927766030784      
0.926568803675      
0.926244218167      
0.918199602263      
0.925902021872      
0.919750158379      
0.891127072703      
0.880245672272      
0.923426968761      
0.972356864605      
0.962938147891      
0.974420348513      
0.964928277809      
0.970008183771      
0.963086211095      
0.965244520083      
0.961152659189      
0.960317054448      
0.959385416696      
0.951835184344      
0.955034421715      
0.929825889371      
0.938207614583      
0.855484600392      
0.866480958329      
0.413314340803      
0.937520235048      
0.975289488067      
0.969546447209      
0.976694265071      
0.970554843872      
0.973118559679      
0.968352688373      
0.968855536621      
0.965923224411      
0.964171826446      
0.963676699591      
0.956301880188      
0.959514917406      
0.936494516723      
0.945291960582      
0.869911245491      
0.885808005662      
0.465936147921      
0.948093612744      
0.977266626095      
0.973722539503      
0.977679392486      
0.972735357871      
0.973890459355      
0.969460807809      
0.969431516923      
0.966378563949      
0.964617033746      
0.963763104716      
0.956821848137      
0.959661222462      
0.937499122128      
0.9463976522        
0.871874604112      
0.890559748025      
0.46504497613       
0.954250783285      
0.977694340027      
0.975283204131      
0.977214873259      
0.972885442427      
0.972846305703      
0.969031283048      
0.968050715626      
0.965836435699      
0.963428349218      
0.963337563375      
0.956391608535      
0.959464653284      
0.938265606586      
0.946306987356      
0.873337860762      
0.888984019583      
0.454948424224      
0.954298981004      
0.979925109413      
0.973832287571      
0.97535896855       
0.970113741671      
0.968783363289      
0.965451028456      
0.962462432003      
0.962154931592      
0.956858303343      
0.959925609926      
0.949100988825      
0.956105694415      
0.929352417291      
0.941371726903      
0.85651140146       
0.874679785798      
0.398357047246      
0.886825828006      
0.865801935068      
0.942497675221      
0.912821913807      
0.937194342449      
0.923986670219      
0.934828219104      
0.932540917917      
0.938991990984      
0.940179616931      
0.945350933783      
0.947656627361      
0.949338061195      
0.949025755048      
0.936713936652      
0.923902214558      
0.856655408724      
0.858220686648      
0.622121152997      
0.616976480115      
0.591271013006      
0.623299573108      
0.832838495894      
0.855420527855      
0.930995062838      
0.929760933125      
0.951538564571      
0.950435794156      
0.94680645009       
0.94596077007       
0.936694792788      
0.935590662835      
0.924874767864      
0.923315471121      
0.911184721571      
0.909065976744      
0.900430508518      
0.899677290545      
0.855611639946      
0.832688423169      
0.840939721643      
0.849777392267      
0.915912757481      
0.902945956199      
0.919287913479      
0.911642692676      
0.923737772457      
0.919594413378      
0.929928882282      
0.92829476528       
0.937130566845      
0.935888398505      
0.939934766704      
0.938903598115      
0.92288605074       
0.931651386011      
0.865083803998      
0.874421972491      
0.64060165987       
0.617193361939      
0.614548026098      
0.648677245115      
0.863634915894      
0.88938045385       
0.922074576553      
0.936171959085      
0.940888297827      
0.941263468283      
0.938718810886      
0.936439996906      
0.929874394429      
0.927040102277      
0.921313039621      
0.9175688504        
0.914656933787      
0.910745846374      
0.907651671273      
0.910347958522      
0.862612332433      
0.851212970718      
0.820165388684      
0.843891660093      
0.905029138309      
0.901061065748      
0.910295512236      
0.910336789369      
0.916931405247      
0.917245668732      
0.924736872809      
0.925162605791      
0.932238254526      
0.933635955937      
0.934918944891      
0.939856261815      
0.924317797872      
0.932195984127      
0.873816598333      
0.872129362821      
0.64407902545       
0.616236622658      
0.613327502917      
0.649243270577      
0.865359853244      
0.887388576561      
0.925125160645      
0.936432732953      
0.937260093321      
0.94096909797       
0.93605554106       
0.934873123504      
0.929091749443      
0.92706827711       
0.921442710386      
0.919056979122      
0.91442418385       
0.912809761423      
0.906644425067      
0.912259581123      
0.863247960423      
0.855935417107      
0.811607953743      
0.842170406542      
0.901565745066      
0.901499632336      
0.908371172005      
0.912003688251      
0.915927800832      
0.918513012326      
0.923998169329      
0.925679929189      
0.93109277134       
0.9338895661        
0.934045932285      
0.939215627551      
0.926226663327      
0.929852750713      
0.875945622954      
0.868673328571      
0.644890845314      
0.614785851269      
0.611172034494      
0.647586578431      
0.863901698782      
0.884025413051      
0.925253163691      
0.934846873385      
0.936583391533      
0.941162509286      
0.935357791625      
0.935715595967      
0.929636318604      
0.927956552053      
0.922635748495      
0.92018884225       
0.91555147488       
0.914113942025      
0.907287656234      
0.913145588243      
0.864160725297      
0.857624583139      
0.810965290822      
0.840983601613      
0.902639920699      
0.901377775056      
0.910274313465      
0.912251228162      
0.917936826405      
0.918667586193      
0.925173031357      
0.925599066443      
0.930570032095      
0.933699024921      
0.932717175172      
0.938801507304      
0.925667791472      
0.929138710245      
0.875830573994      
0.867934130244      
0.645149450679      
0.614634148314      
0.608987568038      
0.647053766602      
0.861743719861      
0.883386341023      
0.923393622795      
0.934565071791      
0.934451927494      
0.941030010771      
0.933717408251      
0.935316172368      
0.930132129651      
0.927117511993      
0.924743677828      
0.919353544599      
0.918310301961      
0.913637223014      
0.910052595928      
0.912895601573      
0.867349790876      
0.857813489488      
0.812125740285      
0.83922608642       
0.903815708349      
0.899803009094      
0.911294329106      
0.91023380717       
0.918305047393      
0.916417758413      
0.924311282732      
0.924054570652      
0.928268840421      
0.933491346772      
0.930406315602      
0.939868068579      
0.92434153475       
0.931186014373      
0.875322951736      
0.870632120569      
0.64560423116       
0.616538415101      
0.606956358285      
0.647673305294      
0.85973345874       
0.885338101943      
0.92124925986       
0.936183793024      
0.931633935511      
0.941550329126      
0.930579898456      
0.934252923973      
0.928409560446      
0.924550607972      
0.924737301213      
0.916376517136      
0.919453827351      
0.91134343225       
0.911900009866      
0.911454276783      
0.870179200958      
0.857017674808      
0.80981021753       
0.8374455873        
0.902004646877      
0.897752011932      
0.908976403671      
0.907470328729      
0.915545366639      
0.913417566005      
0.921487477382      
0.922075158542      
0.925865374466      
0.93329685329       
0.928835142603      
0.941426211667      
0.923611086979      
0.934154879282      
0.875263951023      
0.874470180955      
0.646225552195      
0.61912035119       
0.605886325819      
0.648546610182      
0.858865253452      
0.887859706553      
0.920198808974      
0.938196753459      
0.93001386148       
0.94223015233       
0.928311856001      
0.93322157783       
0.925802913421      
0.921979350615      
0.922258181796      
0.913340291252      
0.917475721339      
0.908992180505      
0.910646619138      
0.91006621046       
0.869835061485      
0.856449669461      
0.805075634911      
0.835468002754      
0.89910625391       
0.896014335857      
0.905599249865      
0.905255256291      
0.91208176324       
0.911411319579      
0.919015515418      
0.921174244895      
0.925207583501      
0.933492854496      
0.928931780456      
0.942616593962      
0.92384502088       
0.936231470266      
0.875794408204      
0.877150394504      
0.646717113862      
0.621153640092      
0.60652113404       
0.648853564098      
0.85966012285       
0.888846050869      
0.920727948995      
0.938948851884      
0.9303608465        
0.942518155561      
0.928420528095      
0.933073910327      
0.924349984728      
0.921335258992      
0.91951036075       
0.912173344809      
0.914548662511      
0.908049572717      
0.908315845584      
0.909799667909      
0.868465870998      
0.857220834408      
0.806863255165      
0.829627072906      
0.903104211614      
0.892833891957      
0.908099374763      
0.901495312955      
0.912208667054      
0.909090354344      
0.91736032547       
0.920365138875      
0.92413822132       
0.933122253394      
0.929138312334      
0.942834894757      
0.923237268623      
0.937424777316      
0.875725002274      
0.879367377206      
0.646860782802      
0.623817083639      
0.607633993901      
0.647678150793      
0.860178659621      
0.886821260209      
0.92040883437       
0.936532906869      
0.930293902472      
0.940212380518      
0.927731887951      
0.931763615293      
0.922384378054      
0.921180017448      
0.918692411169      
0.911735578211      
0.916122148647      
0.907467533854      
0.912346193318      
0.910739866134      
0.87599212182       
0.861574435264      
0.840907496904      
0.831408638378      
0.926743965937      
0.894821322822      
0.930030357622      
0.916607776694      
0.934169292029      
0.929982673429      
0.937738137336      
0.935729503877      
0.939094611652      
0.938536943256      
0.936337561873      
0.939105631977      
0.921332176693      
0.932676879028      
0.867812657978      
0.882537345053      
0.646610121143      
0.633509884426      
0.59943448686       
0.638220056017      
0.845177810815      
0.870615617107      
0.906286607398      
0.917841361284      
0.925160554857      
0.929273107205      
0.929694367888      
0.93236486399       
0.929696714554      
0.931538424731      
0.927765703984      
0.926568373389      
0.926245240215      
0.918200171336      
0.92590212216       
0.91975110355       
0.891128537278      
0.880244995118      
0.92342444688       
0.972353579254      
0.962940044146      
0.97442018072       
0.964928536356      
0.970007993894      
0.963086180266      
0.96524448892       
0.961152640769      
0.96031688208       
0.959385392048      
0.951834519544      
0.95503464052       
0.929826363676      
0.938207369418      
0.855485822933      
0.866480185028      
0.413309144649      
0.937521740623      
0.975289239192      
0.969547359725      
0.976694254806      
0.97055506891       
0.973117989195      
0.968352838787      
0.968854379143      
0.965923227554      
0.964171550335      
0.963676956397      
0.956300558815      
0.959515000035      
0.936493773229      
0.945292211035      
0.869911088567      
0.885806140141      
0.465935930988      
0.948093478244      
0.977266850717      
0.973723161625      
0.977679682109      
0.972735507457      
0.973890559849      
0.969460752199      
0.96943108459       
0.966378340705      
0.964616824955      
0.963763141174      
0.956821814424      
0.959661203805      
0.937498106159      
0.94639751667       
0.871872867251      
0.890558879652      
0.465046724219      
0.954250343906      
0.977703318542      
0.975283399193      
0.977215058342      