# vtk DataFile Version 3.0
PyPan results file. Generated by PyPan, USU AeroLab (c) 2020.
ASCII
DATASET POLYDATA
POINTS 5482 float
-0.75               0.0                 0.0                 
-0.750003874302     -0.00394654320553   -0.00181184627581   
-0.75394654274      -0.00394654320553   0.0                 
-0.746057331562     0.0                 -0.00181184627581   
-0.738238096237     -0.00394654320553   -0.00344284414314   
-0.734291553497     0.0                 -0.00344284414314   
-0.718834757805     -0.00394654320553   -0.00608198810369   
-0.714888215065     0.0                 -0.00608198810369   
-0.692099869251     -0.00394654320553   -0.00961900223047   
-0.688153326511     0.0                 -0.00961900223047   
-0.658455014229     -0.00394654320553   -0.0139143215492    
-0.654508471489     0.0                 -0.0139143215492    
-0.61843085289      -0.00394654320553   -0.0188094414771    
-0.61448431015      0.0                 -0.0188094414771    
-0.572658538818     -0.00394654320553   -0.0241352561861    
-0.568711996078     0.0                 -0.0241352561861    
-0.521859943867     -0.00394654320553   -0.0297167357057    
-0.517913401127     0.0                 -0.0297167357057    
-0.466836184263     -0.00394654320553   -0.0353735275567    
-0.462889641523     0.0                 -0.0353735275567    
-0.408455044031     -0.00394654320553   -0.0409174077213    
-0.404508501291     0.0                 -0.0409174077213    
-0.347637206316     -0.00394654320553   -0.0461486950517    
-0.343690663576     0.0                 -0.0461486950517    
-0.285341799259     -0.00394654320553   -0.0508543401957    
-0.281395256519     0.0                 -0.0508543401957    
-0.222551286221     -0.00394654320553   -0.0548101887107    
-0.218604743481     0.0                 -0.0548101887107    
-0.160255879164     -0.00394654320553   -0.0577890649438    
-0.156309336424     0.0                 -0.0577890649438    
-0.0994380488992    -0.00394654320553   -0.0595747157931    
-0.0954915061593    0.0                 -0.0595747157931    
-0.0410568974912    -0.00394654320553   -0.0599800385535    
-0.0371103547513    0.0                 -0.0599800385535    
0.0139668546617     -0.00394654320553   -0.0588664188981    
0.0179133974016     0.0                 -0.0588664188981    
0.0647654533386     -0.00394654320553   -0.0561602301896    
0.0687119960785     0.0                 -0.0561602301896    
0.11053776741       -0.00394654320553   -0.051862526685     
0.11448431015       0.0                 -0.051862526685     
0.150561958551      -0.00394654320553   -0.0460489317775    
0.154508501291      0.0                 -0.0460489317775    
0.184206798673      -0.00394654320553   -0.0388585478067    
0.188153341413      0.0                 -0.0388585478067    
0.210941702127      -0.00394654320553   -0.0304728709161    
0.214888244867      0.0                 -0.0304728709161    
0.23034504056       -0.00394654320553   -0.0210879072547    
0.2342915833        0.0                 -0.0210879072547    
0.242110803723      -0.00394654320553   -0.0108841704205    
0.246057346463      0.0                 -0.0108841704205    
0.24605345726       -0.00394654320553   0.0                 
0.25                0.0                 0.0                 
0.242110803723      -0.00394654320553   0.0108841704205     
0.246057346463      0.0                 0.0108841704205     
0.23034504056       -0.00394654320553   0.0210879072547     
0.2342915833        0.0                 0.0210879072547     
0.210941702127      -0.00394654320553   0.0304728709161     
0.214888244867      0.0                 0.0304728709161     
0.184206798673      -0.00394654320553   0.0388585478067     
0.188153341413      0.0                 0.0388585478067     
0.150561958551      -0.00394654320553   0.0460489317775     
0.154508501291      0.0                 0.0460489317775     
0.11053776741       -0.00394654320553   0.051862526685      
0.11448431015       0.0                 0.051862526685      
0.0647654533386     -0.00394654320553   0.0561602301896     
0.0687119960785     0.0                 0.0561602301896     
0.0139668546617     -0.00394654320553   0.0588664188981     
0.0179133974016     0.0                 0.0588664188981     
-0.0410568974912    -0.00394654320553   0.0599800385535     
-0.0371103547513    0.0                 0.0599800385535     
-0.0994380488992    -0.00394654320553   0.0595747157931     
-0.0954915061593    0.0                 0.0595747157931     
-0.160255879164     -0.00394654320553   0.0577890649438     
-0.156309336424     0.0                 0.0577890649438     
-0.222551286221     -0.00394654320553   0.0548101887107     
-0.218604743481     0.0                 0.0548101887107     
-0.285341799259     -0.00394654320553   0.0508543401957     
-0.281395256519     0.0                 0.0508543401957     
-0.347637206316     -0.00394654320553   0.0461486950517     
-0.343690663576     0.0                 0.0461486950517     
-0.408455044031     -0.00394654320553   0.0409174077213     
-0.404508501291     0.0                 0.0409174077213     
-0.466836184263     -0.00394654320553   0.0353735275567     
-0.462889641523     0.0                 0.0353735275567     
-0.521859943867     -0.00394654320553   0.0297167357057     
-0.517913401127     0.0                 0.0297167357057     
-0.572658538818     -0.00394654320553   0.0241352561861     
-0.568711996078     0.0                 0.0241352561861     
-0.61843085289      -0.00394654320553   0.0188094414771     
-0.61448431015      0.0                 0.0188094414771     
-0.658455014229     -0.00394654320553   0.0139143215492     
-0.654508471489     0.0                 0.0139143215492     
-0.692099869251     -0.00394654320553   0.00961900223047    
-0.688153326511     0.0                 0.00961900223047    
-0.718834757805     -0.00394654320553   0.00608198810369    
-0.714888215065     0.0                 0.00608198810369    
-0.738238096237     -0.00394654320553   0.00344284414314    
-0.734291553497     0.0                 0.00344284414314    
-0.750003874302     -0.00394654320553   0.00181184627581    
-0.746057331562     0.0                 0.00181184627581    
-0.761827945709     -0.0157705973834    -0.00181184627581   
-0.765770614147     -0.0157705973834    0.0                 
-0.750062167645     -0.0157705973834    -0.00344284414314   
-0.730658829212     -0.0157705973834    -0.00608198810369   
-0.703923940659     -0.0157705973834    -0.00961900223047   
-0.670279085636     -0.0157705973834    -0.0139143215492    
-0.630254924297     -0.0157705973834    -0.0188094414771    
-0.584482610226     -0.0157705973834    -0.0241352561861    
-0.533684015274     -0.0157705973834    -0.0297167357057    
-0.478660255671     -0.0157705973834    -0.0353735275567    
-0.420279085636     -0.0157705973834    -0.0409174077213    
-0.359461247921     -0.0157705973834    -0.0461486950517    
-0.297165870667     -0.0157705973834    -0.0508543401957    
-0.234375342727     -0.0157705973834    -0.0548101887107    
-0.17207993567      -0.0157705973834    -0.0577890649438    
-0.111262097955     -0.0157705973834    -0.0595747157931    
-0.0528809502721    -0.0157705973834    -0.0599800385535    
0.00214280001819    -0.0157705973834    -0.0588664188981    
0.0529413968325     -0.0157705973834    -0.0561602301896    
0.0987137183547     -0.0157705973834    -0.051862526685     
0.138737902045      -0.0157705973834    -0.0460489317775    
0.172382742167      -0.0157705973834    -0.0388585478067    
0.199117645621      -0.0157705973834    -0.0304728709161    
0.218520984054      -0.0157705973834    -0.0210879072547    
0.230286747217      -0.0157705973834    -0.0108841704205    
0.234229400754      -0.0157705973834    0.0                 
0.230286747217      -0.0157705973834    0.0108841704205     
0.218520984054      -0.0157705973834    0.0210879072547     
0.199117645621      -0.0157705973834    0.0304728709161     
0.172382742167      -0.0157705973834    0.0388585478067     
0.138737902045      -0.0157705973834    0.0460489317775     
0.0987137183547     -0.0157705973834    0.051862526685      
0.0529413968325     -0.0157705973834    0.0561602301896     
0.00214280001819    -0.0157705973834    0.0588664188981     
-0.0528809502721    -0.0157705973834    0.0599800385535     
-0.111262097955     -0.0157705973834    0.0595747157931     
-0.17207993567      -0.0157705973834    0.0577890649438     
-0.234375342727     -0.0157705973834    0.0548101887107     
-0.297165870667     -0.0157705973834    0.0508543401957     
-0.359461247921     -0.0157705973834    0.0461486950517     
-0.420279085636     -0.0157705973834    0.0409174077213     
-0.478660255671     -0.0157705973834    0.0353735275567     
-0.533684015274     -0.0157705973834    0.0297167357057     
-0.584482610226     -0.0157705973834    0.0241352561861     
-0.630254924297     -0.0157705973834    0.0188094414771     
-0.670279085636     -0.0157705973834    0.0139143215492     
-0.703923940659     -0.0157705973834    0.00961900223047    
-0.730658829212     -0.0157705973834    0.00608198810369    
-0.750062167645     -0.0157705973834    0.00344284414314    
-0.761827945709     -0.0157705973834    0.00181184627581    
-0.781482875347     -0.0354254990816    -0.00181184627581   
-0.78542548418      -0.0354254990816    0.0                 
-0.769717097282     -0.0354254990816    -0.00344284414314   
-0.75031375885      -0.0354254990816    -0.00608198810369   
-0.723578810692     -0.0354254990816    -0.00961900223047   
-0.689934015274     -0.0354254990816    -0.0139143215492    
-0.649909794331     -0.0354254990816    -0.0188094414771    
-0.604137480259     -0.0354254990816    -0.0241352561861    
-0.553338885307     -0.0354254990816    -0.0297167357057    
-0.498315155506     -0.0354254990816    -0.0353735275567    
-0.439933985472     -0.0354254990816    -0.0409174077213    
[...]
CELL_DATA 10960
SCALARS pressure_coefficient float 1
LOOKUP_TABLE default
0.79175911149       
0.786237593479      
0.90072484141       
0.864378609114      
0.874781705409      
0.848824499751      
0.861051745699      
0.845108306609      
0.854963255822      
0.845879677982      
0.853731132885      
0.848396663673      
0.85510206724       
0.851706093842      
0.857769682195      
0.855402253318      
0.861060477261      
0.859276932306      
0.864645242115      
0.863221670284      
0.868360328171      
0.867172452026      
0.87210199095       
0.871066623753      
0.87575682324       
0.874804453129      
0.879143192889      
0.878206230004      
0.881959689008      
0.880977866804      
0.883723759576      
0.882672379618      
0.88369041571       
0.882650419264      
0.880712419695      
0.880015781915      
0.872947412172      
0.873453032814      
0.857218577401      
0.86075536076       
0.82759710037       
0.837398778433      
0.772180831931      
0.792819472288      
0.667573558838      
0.703386448235      
0.49406858942       
0.529497275948      
0.331781212908      
0.299744115272      
0.352524981232      
0.289453284822      
0.563368967249      
0.53683276155       
0.723486511547      
0.725464529011      
0.803613175415      
0.814550085755      
0.845104574033      
0.856589938245      
0.868240354634      
0.877192146598      
0.881228502042      
0.886978998079      
0.887838655753      
0.890718092816      
0.890164131466      
0.890819821879      
0.889568236969      
0.888664549127      
0.887031430787      
0.885121237174      
0.88327833017       
0.880759972765      
0.878824347007      
0.875946255396      
0.87400567743       
0.870894045565      
0.86901528378       
0.865707206907      
0.863938462922      
0.860416096382      
0.858795772647      
0.855019926219      
0.853582747281      
0.849540471915      
0.848299755957      
0.844103345728      
0.842972944562      
0.839040062273      
0.837740198655      
0.834865330844      
0.833657965594      
0.832903144964      
0.832067981735      
0.837467206787      
0.818604865959      
0.82952353297       
0.60260062669       
0.455051095663      
0.802079634217      
0.786969230258      
0.909288095433      
0.881599108259      
0.884483014693      
0.869714286114      
0.869592798356      
0.861858279199      
0.865844770232      
0.859323351745      
0.866666211216      
0.859923935754      
0.86877566395       
0.862021332327      
0.871233604757      
0.864791879598      
0.87380768249       
0.867844898981      
0.876428314387      
0.870989864149      
0.879037859204      
0.874116261656      
0.881538951766      
0.877121886332      
0.883763473525      
0.879868270617      
0.885435533282      
0.882136989413      
0.886130673756      
0.883594810273      
0.885228702229      
0.883747468996      
0.881870992059      
0.881877485515      
0.874926967482      
0.876926984677      
0.862968113654      
0.86725013469       
0.844134590308      
0.850107637992      
0.815435022833      
0.820620754125      
0.770485122296      
0.769417800692      
0.694658878103      
0.679563689795      
0.563643552955      
0.536992799791      
0.40738719778       
0.39456756578       
0.397419571224      
0.402276670155      
0.544182073426      
0.55294098053       
0.692805135825      
0.688506268024      
0.782621503511      
0.772665051128      
0.832798352195      
0.824444075266      
0.860826077314      
0.856026372137      
0.876541657585      
0.874379825431      
0.885012084988      
0.884193868369      
0.888922730571      
0.888548795072      
0.889835644134      
0.889425533684      
0.88875590728       
0.888112314507      
0.886371715946      
0.885458711872      
0.883158988074      
0.882022514909      
0.879432844186      
0.878157030932      
0.875385257644      
0.874072898228      
0.871115214769      
0.869884641567      
0.866665858409      
0.865651678273      
0.862059794547      
0.861409161759      
0.857355032746      
0.857187135144      
0.852703917538      
0.853000078656      
0.848153463518      
0.848573479163      
0.842190017243      
0.841927459186      
0.829484546618      
0.82731819036       
0.817007499541      
0.79636061192       
0.726432683339      
0.630346812756      
0.792233385005      
0.77666036641       
0.915765072521      
0.869575575069      
0.892133255757      
0.874774755667      
0.876207831341      
0.868646377223      
0.868167859172      
0.865595036724      
0.866388377624      
0.865857363139      
0.867711642289      
0.867702235138      
0.870343996113      
0.870183041018      
0.873431729482      
0.872907901214      
0.876571538516      
0.875694113426      
0.879560340283      
0.878425530829      
0.882260860931      
0.880985456967      
0.88452734082       
0.883214027406      
0.886157126319      
0.884868368734      
0.886857498195      
0.885584868728      
0.886214759194      
0.884839030521      
0.883653879636      
0.881902898256      
0.878357351055      
0.875793826171      
0.869084301056      
0.865179916396      
0.853761888912      
0.848104613468      
0.828642741875      
0.821077501811      
0.786369384692      
0.776819228665      
0.713064179038      
0.698441064643      
0.582987450457      
0.571765796277      
0.440423862219      
0.433312934437      
0.432631067535      
0.437081886889      
0.56594392853       
0.579620103549      
0.701842355105      
0.709525874609      
0.785929263678      
0.789066351197      
0.832419544062      
0.833409958415      
0.858991813581      
0.85888573803       
0.874684390576      
0.874052486008      
0.883809891382      
0.88304979705       
0.888589609792      
0.887982228331      
0.890362924485      
0.890063289325      
0.890053011151      
0.89010062776       
0.888327014634      
0.888677523356      
0.885659801055      
0.886217166059      
0.882369067429      
0.883007073094      
0.878643425423      
0.879216738218      
0.874569264862      
0.87491953063       
0.870157043287      
0.870123264749      
0.865370309042      
0.864816817903      
0.860160142169      
0.859031264438      
0.854456822434      
0.852827118067      
0.848012044614      
0.845907120753      
0.840697856265      
0.837238876704      
0.839015770412      
0.830813299257      
0.863945515822      
0.826426196007      
0.766480237125      
0.677576405779      
0.781103403406      
0.769428948156      
0.91675460015       
0.859921169054      
0.898847630465      
0.873454067852      
0.882077161068      
0.872025505364      
0.872981343202      
0.868955955922      
0.869526655751      
0.867943990296      
0.86944073329       
0.869013646572      
0.871113484482      
0.871250734838      
0.873584741728      
0.873994406808      
0.876366219424      
0.876876982606      
0.879203931414      
0.879695423292      
0.881930991964      
0.882304787239      
0.884388613672      
0.884552504974      
0.886370163719      
0.886228697097      
0.887580717699      
0.887034211549      
0.887598914768      
0.886550894639      
0.885832288079      
0.884203125197      
0.881448318876      
0.879180063542      
0.873228294088      
0.870246095575      
0.859230187284      
0.85531296291       
0.835872823291      
0.830523282005      
0.796245882593      
0.78780365079       
0.723313740801      
0.71228675908       
0.595068792775      
0.592568461014      
0.461099660898      
0.453362604187      
0.454041937698      
0.45769024612       
0.583190340809      
0.598957494088      
0.710719063818      
0.719860161656      
0.792089025449      
0.795153283878      
0.836323175174      
0.837692012103      
0.862021852967      
0.862475994895      
0.876907995108      
0.876952581135      
0.88527661927       
0.885076214357      
0.889442495334      
0.88906225236       
0.89079398182       
0.890267286607      
0.890226710851      
0.889578602261      
0.888350331874      
0.887600662488      
0.885581740555      
0.88474389763       
0.882194808727      
0.881274653969      
0.878354435591      
0.877350960798      
0.874146658086      
0.873051326631      
0.86961310063       
0.868408530038      
0.864784424311      
0.863433814852      
0.859723319643      
0.858140037672      
0.854614579753      
0.852593209065      
0.850261861548      
0.847374556377      
0.849901373304      
0.845052324304      
0.86090599701       
0.845999687575      
0.890237727425      
0.845804407874      
0.783451785054      
0.700135017722      
0.771215040433      
0.764366644737      
0.915004070937      
0.856797368054      
0.903765227968      
0.869916025074      
0.887145271095      
0.873150139775      
0.877323048511      
0.871914479681      
0.87308837995       
0.870780741413      
0.872060782427      
0.871036419792      
0.872890215027      
0.872563674716      
0.874794681661      
0.874846345381      
0.87725644962       
0.877484840497      
0.879958053401      
0.880229286539      
0.882689726689      
0.882904595318      
0.885269987848      
0.885345417518      
0.887484706182      
0.887343927191      
0.889042292208      
0.888610942307      
0.889532129054      
0.888735496588      
0.88837888853       
0.88713560922       
0.884769956772      
0.882974281995      
0.877497705532      
0.874986749559      
0.864590473707      
0.86105240389       
0.84236928219       
0.837434855807      
0.803822456629      
0.795160599653      
0.728825313044      
0.724105105888      
0.604719237181      
0.606516960013      
0.474811169529      
0.46532798126       
0.467737376422      
0.470387772888      
0.59582502926       
0.613557406252      
0.717905582542      
0.730258877093      
0.798546387714      
0.801595216043      
0.841036539551      
0.842389736352      
0.865108328334      
0.865587477043      
0.879114222125      
0.879100714429      
0.886840776574      
0.886556265585      
0.890507249768      
0.89004355048       
0.891445553151      
0.890849394094      
0.890538751286      
0.889836615724      
0.888393828098      
0.887602516345      
0.885426050058      
0.884555141478      
0.881908352494      
0.880958899624      
0.878011377507      
0.876973762895      
0.873840914464      
0.872691460074      
0.869488822018      
0.868187266507      
0.86510250999       
0.863583817967      
0.861007465814      
0.859177424314      
0.857947688557      
0.85569853514       
0.857414912179      
0.854427769202      
0.862244173336      
0.855478222697      
0.878005538969      
0.853288948756      
0.903136348961      
0.857261347915      
0.792048271102      
0.712790524567      
0.762939400571      
0.760851138281      
0.912260051323      
0.856602932487      
0.906397083177      
0.865795414829      
0.89140416285       
0.873064015701      
0.881324552943      
0.87392096854       
0.876544694636      
0.873520927881      
0.875051135584      
0.873584247867      
0.875325295985      
0.87457822875       
0.876691492716      
0.876391393987      
0.878765496854      
0.878737932927      
0.881256123048      
0.881361050908      
0.883933935565      
0.884060119667      
0.886595046066      
0.886650514965      
0.889011829326      
0.888913393667      
0.890885581387      
0.890552472433      
0.891802456076      
0.891149493978      
0.891183578473      
0.890111157602      
0.888206198333      
0.886586699188      
0.88164741297       
0.879281120585      
0.869435086507      
0.866144313758      
0.84809533657       
0.843094382125      
0.809437393439      
0.80163209398       
0.732768697113      
0.734614093292      
0.613359967798      
0.616669551743      
0.4846309843        
0.473606521478      
0.477206462263      
0.479024862278      
0.605516071741      
0.624409189714      
0.72347719562       
0.739836395338      
0.803674329396      
0.807370880866      
0.846163470467      
0.847194923708      
0.86871665036       
0.869145266008      
0.881779537115      
0.88167036422       
0.888798678844      
0.888397759874      
0.89192653498       
0.891330480907      
0.892446581397      
0.891709690678      
0.89121504511       
0.890369208444      
0.888827792239      
0.887892022615      
0.885698374031      
0.884681957999      
0.88211109091       
0.881011355654      
0.878262829177      
0.877065877733      
0.87431555013       
0.872994806815      
0.870460752867      
0.868981996665      
0.867005035336      
0.865341400321      
0.864456156263      
0.862614907569      
0.863532297094      
0.861461233901      
0.865345789886      
0.861938432956      
0.872597100081      
0.862176051153      
0.889860605528      
0.856965089937      
0.909749996728      
0.864271877262      
0.796753434227      
0.720579804011      
0.756136889522      
0.758439438538      
0.909311936756      
0.85731453098       
0.907420307457      
0.862309344937      
0.894832129483      
0.872221245331      
0.884898664117      
0.875227322232      
0.879821213829      
0.875867897837      
0.878049341618      
0.87621989495       
0.878070023306      
0.877050259633      
0.879118928592      
0.878525546818      
0.880871018323      
0.880569059301      
0.883127248863      
0.883014749938      
0.885699921996      
0.885675717399      
0.888388015478      
0.888355411497      
0.890952365313      
0.890819330551      
0.893082137298      
0.892756956684      
0.894351793628      
0.893736582692      
0.894169183391      
0.893152580658      
0.891695338137      
0.890141339645      
0.885668427634      
0.883407200991      
0.873996179698      
0.870952834243      
0.85336431937       
0.848062996577      
0.813837144494      
0.808154853274      
0.736554049081      
0.743862625766      
0.621301260046      
0.624713006544      
0.492109213574      
0.479969023895      
0.484214733341      
0.485534126167      
0.613363919769      
0.632754922681      
0.728468409457      
0.748422445811      
0.807460846774      
0.812771801708      
0.850956896543      
0.851607064206      
0.872640690828      
0.872911951164      
0.884805596851      
0.884573092301      
0.891189358479      
0.890636815264      
0.893793373494      
0.893035785474      
0.893908345599      
0.893001228719      
0.8923735135        
0.891352607401      
0.889781371629      
0.888668083638      
0.886554652001      
0.885358880932      
0.88299973045       
0.881721255775      
0.879354890215      
0.877985312166      
0.875843567264      
0.874373788542      
0.872724991174      
0.871161096855      
0.870319965103      
0.868700286259      
0.86899377286       
0.867343375019      
0.86923372148       
0.867199959843      
0.872218362447      
0.86758001957       
0.880782771166      
0.865946948495      
0.897749067503      
0.859794381896      
0.913204294943      
0.868780980078      
0.799409389204      
0.725681329939      
0.750598143551      
0.756819749974      
0.906501877838      
0.858268842453      
0.907501719992      
0.860048119441      
0.897460961254      
0.871016669546      
0.887983165169      
0.875999331465      
0.882845757333      
0.877798248234      
0.880914345821      
0.878681638607      
0.880832154594      
0.87964099381       
0.881768617615      
0.8810219612        
0.883367104147      
0.882882658419      
0.885465477269      
0.885167279396      
0.887935007337      
0.887754123416      
0.89061242056       
0.890467021093      
0.893269872779      
0.893069352848      
0.895591350096      
0.895238843327      
0.897139987129      
0.896530712659      
0.897307968981      
0.896328412612      
0.895239134269      
0.893752801845      
0.889622049888      
0.887543005548      
0.878477118836      
0.875540264441      
0.858243793817      
0.852729469699      
0.817566284116      
0.814838170938      
0.740724438808      
0.75198356646       
0.628590395687      
0.631415203788      
0.498068375864      
0.485250584812      
0.489691061508      
0.490859025332      
0.619942635489      
0.639480435639      
0.733470189904      
0.756014474956      
0.810502940488      
0.81813836014       
0.855165185562      
0.855633088843      
0.876680022987      
0.876685337121      
0.888069120824      
0.887707434716      
0.893924396525      
0.893210937144      
0.896079472198      
0.895152377893      
0.895841555566      
0.894758396875      
0.894056074521      
0.89285576192       
0.891322946311      
0.890031157659      
0.888081503164      
0.886714025599      
0.884662716571      
0.883229759716      
0.881334651091      
0.879846148         
0.878333585349      
0.876811082163      
0.87587942481       
0.874364330132      
0.874173764025      
0.872705350021      
0.873456402617      
0.871940201382      
0.874252941219      
0.871902817904      
0.877930891138      
0.871483291729      
0.887229397453      
0.868029104695      
0.90291768604       
0.862485490516      
0.914950075112      
0.871813801969      
0.800938426198      
0.729160191398      
0.746077321065      
0.755777647471      
0.903951979624      
0.859251565402      
0.907061983666      
0.859017462327      
0.899362895823      
0.869754896571      
0.890591714641      
0.876368709561      
0.885557568153      
0.879337237194      
0.88357088565       
0.880868381083      
0.88346170068       
0.882122032882      
0.884396176316      
0.883591748531      
0.885978171634      
0.88543276439       
0.888039283108      
0.887657058139      
0.890474427801      
0.890201272763      
0.893155518386      
0.892931626484      
0.89588123476       
0.895630413746      
0.898346854879      
0.897977844348      
0.900112624491      
0.899523106735      
0.900561447596      
0.899638533799      
0.898816233498      
0.897436462232      
0.893545264816      
0.891676663313      
0.882905269834      
0.879884758616      
0.862728489724      
0.857356010167      
0.820999833094      
0.821494933757      
0.745382223234      
0.759093766925      
0.635200914917      
0.637162582386      
0.502971277026      
0.489871449318      
0.494142960986      
0.495468630342      
0.625566062373      
0.645127847109      
0.738590090531      
0.762682326525      
0.813345974016      
0.823543042166      
0.858847661918      
0.859475326838      
0.88067519561       
0.880366731751      
0.891490106969      
0.890995480062      
0.896897284841      
0.896040850727      
0.898702362238      
0.897619915871      
0.898184837367      
0.89694492287       
0.896217527151      
0.894862533759      
0.893412121143      
0.891975340423      
0.890221939968      
0.888730336444      
0.886986839354      
0.885466343238      
0.883964878643      
0.882446265733      
0.881346951935      
0.879868882807      
0.879275125939      
0.877874025752      
0.87788416711       
0.876547459038      
0.877426324256      
0.875895109353      
0.878533941932      
0.875567011141      
0.882664906238      
0.874118849499      
0.892266402975      
0.869206631767      
0.906273887146      
0.865000891382      
0.915710011601      
0.873917953486      
0.801774731791      
0.731568767688      
0.742385047857      
0.755158527069      
0.901694742083      
0.860204731086      
0.906352879707      
0.858931740589      
0.900661232721      
0.868622385168      
0.89276432429       
0.876454047375      
0.887933374003      
0.880531956907      
0.8859749997        
0.882746644135      
0.885882099789      
0.88438014674       
0.886865985299      
0.886042395968      
0.88850444468       
0.887976157014      
0.890613871591      
0.890244176205      
0.893091917912      
0.892818793259      
0.895825491571      
0.895597572193      
0.89863298948       
0.898387687751      
0.901225389319      
0.900882738648      
0.903169640585      
0.90263591327       
0.903847404011      
0.903012296768      
0.902361370273      
0.901130757769      
0.897408577093      
0.895714037711      
0.887191684081      
0.883996971825      
0.866824755726      
0.862026696072      
0.824344034867      
0.827858977079      
0.750365575268      
0.765288670436      
0.641103098175      
0.642163211269      