# vtk DataFile Version 3.0
PyPan results file. Generated by PyPan, USU AeroLab (c) 2020.
ASCII
DATASET POLYDATA
POINTS 492 float
-0.75               0.0                 0.0                 
-0.823415219784     -0.0978869646788    -0.00464247865602   
-0.84788697958      -0.0978869646788    0.0                 
-0.725528240204     0.0                 -0.00464247865602   
-0.752395451069     -0.0978869646788    -0.0139143215492    
-0.654508471489     0.0                 -0.0139143215492    
-0.641779601574     -0.0978869646788    -0.0269051659852    
-0.543892621994     0.0                 -0.0269051659852    
-0.502395451069     -0.0978869646788    -0.0409174077213    
-0.404508501291     0.0                 -0.0409174077213    
-0.34788697958      -0.0978869646788    -0.0529402531683    
-0.25               0.0                 -0.0529402531683    
-0.193378463387     -0.0978869646788    -0.0595747157931    
-0.0954915061593    0.0                 -0.0595747157931    
-0.0539943426847    -0.0978869646788    -0.0577141307294    
0.0438926257193     0.0                 -0.0577141307294    
0.0566215291619     -0.0978869646788    -0.0460489317775    
0.154508501291      0.0                 -0.0460489317775    
0.127641290426      -0.0978869646788    -0.0258933138102    
0.225528255105      0.0                 -0.0258933138102    
0.152113035321      -0.0978869646788    0.0                 
0.25                0.0                 0.0                 
0.127641290426      -0.0978869646788    0.0258933138102     
0.225528255105      0.0                 0.0258933138102     
0.0566215291619     -0.0978869646788    0.0460489317775     
0.154508501291      0.0                 0.0460489317775     
-0.0539943426847    -0.0978869646788    0.0577141307294     
0.0438926257193     0.0                 0.0577141307294     
-0.193378463387     -0.0978869646788    0.0595747157931     
-0.0954915061593    0.0                 0.0595747157931     
-0.34788697958      -0.0978869646788    0.0529402531683     
-0.25               0.0                 0.0529402531683     
-0.502395451069     -0.0978869646788    0.0409174077213     
-0.404508501291     0.0                 0.0409174077213     
-0.641779601574     -0.0978869646788    0.0269051659852     
-0.543892621994     0.0                 0.0269051659852     
-0.752395451069     -0.0978869646788    0.0139143215492     
-0.654508471489     0.0                 0.0139143215492     
-0.823415219784     -0.0978869646788    0.00464247865602    
-0.725528240204     0.0                 0.00464247865602    
-1.10749423504      -0.381966024637     -0.00464247865602   
-1.13196599483      -0.381966024637     0.0                 
-1.03647446632      -0.381966024637     -0.0139143215492    
-0.925858616829     -0.381966024637     -0.0269051659852    
-0.786474525928     -0.381966024637     -0.0409174077213    
-0.631965994835     -0.381966024637     -0.0529402531683    
-0.477457523346     -0.381966024637     -0.0595747157931    
-0.338073372841     -0.381966024637     -0.0577141307294    
-0.227457508445     -0.381966024637     -0.0460489317775    
-0.156437754631     -0.381966024637     -0.0258933138102    
-0.131966009736     -0.381966024637     0.0                 
-0.156437754631     -0.381966024637     0.0258933138102     
-0.227457508445     -0.381966024637     0.0460489317775     
-0.338073372841     -0.381966024637     0.0577141307294     
-0.477457523346     -0.381966024637     0.0595747157931     
-0.631965994835     -0.381966024637     0.0529402531683     
-0.786474525928     -0.381966024637     0.0409174077213     
-0.925858616829     -0.381966024637     0.0269051659852     
-1.03647446632      -0.381966024637     0.0139143215492     
-1.10749423504      -0.381966024637     0.00464247865602    
-1.54995775223      -0.824429512024     -0.00464247865602   
-1.57442951202      -0.824429512024     0.0                 
-1.47893798351      -0.824429512024     -0.0139143215492    
-1.36832213402      -0.824429512024     -0.0269051659852    
-1.22893798351      -0.824429512024     -0.0409174077213    
-1.07442951202      -0.824429512024     -0.0529402531683    
-0.91992098093      -0.824429512024     -0.0595747157931    
-0.78053689003      -0.824429512024     -0.0577141307294    
-0.66992098093      -0.824429512024     -0.0460489317775    
-0.598901212215     -0.824429512024     -0.0258933138102    
-0.574429512024     -0.824429512024     0.0                 
-0.598901212215     -0.824429512024     0.0258933138102     
-0.66992098093      -0.824429512024     0.0460489317775     
-0.78053689003      -0.824429512024     0.0577141307294     
-0.91992098093      -0.824429512024     0.0595747157931     
-1.07442951202      -0.824429512024     0.0529402531683     
-1.22893798351      -0.824429512024     0.0409174077213     
-1.36832213402      -0.824429512024     0.0269051659852     
-1.47893798351      -0.824429512024     0.0139143215492     
-1.54995775223      -0.824429512024     0.00464247865602    
-2.10749435425      -1.38196599483      -0.00464247865602   
-2.13196611404      -1.38196599483      0.0                 
-2.03647446632      -1.38196599483      -0.0139143215492    
-1.92585861683      -1.38196599483      -0.0269051659852    
-1.78647446632      -1.38196599483      -0.0409174077213    
-1.63196599483      -1.38196599483      -0.0529402531683    
-1.47745752335      -1.38196599483      -0.0595747157931    
-1.33807337284      -1.38196599483      -0.0577141307294    
-1.22745752335      -1.38196599483      -0.0460489317775    
-1.15643775463      -1.38196599483      -0.0258933138102    
-1.13196599483      -1.38196599483      0.0                 
-1.15643775463      -1.38196599483      0.0258933138102     
-1.22745752335      -1.38196599483      0.0460489317775     
-1.33807337284      -1.38196599483      0.0577141307294     
-1.47745752335      -1.38196599483      0.0595747157931     
-1.63196599483      -1.38196599483      0.0529402531683     
-1.78647446632      -1.38196599483      0.0409174077213     
-1.92585861683      -1.38196599483      0.0269051659852     
-2.03647446632      -1.38196599483      0.0139143215492     
-2.10749435425      -1.38196599483      0.00464247865602    
-2.7255282402       -2.0                -0.00464247865602   
-2.75               -2.0                0.0                 
-2.6545085907       -2.0                -0.0139143215492    
-2.54389262199      -2.0                -0.0269051659852    
-2.4045085907       -2.0                -0.0409174077213    
-2.25               -2.0                -0.0529402531683    
-2.0954914093       -2.0                -0.0595747157931    
-1.95610737801      -2.0                -0.0577141307294    
-1.84549152851      -2.0                -0.0460489317775    
-1.7744717598       -2.0                -0.0258933138102    
-1.75               -2.0                0.0                 
-1.7744717598       -2.0                0.0258933138102     
-1.84549152851      -2.0                0.0460489317775     
-1.95610737801      -2.0                0.0577141307294     
-2.0954914093       -2.0                0.0595747157931     
-2.25               -2.0                0.0529402531683     
-2.4045085907       -2.0                0.0409174077213     
-2.54389262199      -2.0                0.0269051659852     
-2.6545085907       -2.0                0.0139143215492     
-2.7255282402       -2.0                0.00464247865602    
-3.34356236458      -2.61803388596      -0.00464247865602   
-3.36803388596      -2.61803388596      0.0                 
-3.27254247665      -2.61803388596      -0.0139143215492    
-3.16192650795      -2.61803388596      -0.0269051659852    
-3.02254247665      -2.61803388596      -0.0409174077213    
-2.86803388596      -2.61803388596      -0.0529402531683    
-2.71352553368      -2.61803388596      -0.0595747157931    
-2.57414126396      -2.61803388596      -0.0577141307294    
-2.46352553368      -2.61803388596      -0.0460489317775    
-2.39250564575      -2.61803388596      -0.0258933138102    
-2.36803388596      -2.61803388596      0.0                 
-2.39250564575      -2.61803388596      0.0258933138102     
-2.46352553368      -2.61803388596      0.0460489317775     
-2.57414126396      -2.61803388596      0.0577141307294     
-2.71352553368      -2.61803388596      0.0595747157931     
-2.86803388596      -2.61803388596      0.0529402531683     
-3.02254247665      -2.61803388596      0.0409174077213     
-3.16192650795      -2.61803388596      0.0269051659852     
-3.27254247665      -2.61803388596      0.0139143215492     
-3.34356236458      -2.61803388596      0.00464247865602    
-3.90109872818      -3.17557048798      -0.00464247865602   
-3.92557048798      -3.17557048798      0.0                 
-3.83007907867      -3.17557048798      -0.0139143215492    
-3.71946310997      -3.17557048798      -0.0269051659852    
-3.58007907867      -3.17557048798      -0.0409174077213    
-3.42557048798      -3.17557048798      -0.0529402531683    
-3.27106189728      -3.17557048798      -0.0595747157931    
-3.13167786598      -3.17557048798      -0.0577141307294    
-3.02106189728      -3.17557048798      -0.0460489317775    
-2.95004224777      -3.17557048798      -0.0258933138102    
-2.92557048798      -3.17557048798      0.0                 
-2.95004224777      -3.17557048798      0.0258933138102     
-3.02106189728      -3.17557048798      0.0460489317775     
-3.13167786598      -3.17557048798      0.0577141307294     
-3.27106189728      -3.17557048798      0.0595747157931     
-3.42557048798      -3.17557048798      0.0529402531683     
-3.58007907867      -3.17557048798      0.0409174077213     
-3.71946310997      -3.17557048798      0.0269051659852     
-3.83007907867      -3.17557048798      0.0139143215492     
-3.90109872818      -3.17557048798      0.00464247865602    
-4.34356212616      -3.61803388596      -0.00464247865602   
[...]
CELL_DATA 980
SCALARS pressure_coefficient float 1
LOOKUP_TABLE default
-11.6810093962      
-26.512297504       
-2.98098270163      
-7.47263307333      
-3.37113433851      
-3.94273730375      
-4.42137305502      
-2.24154007468      
-5.441462797        
-1.0162425468       
-5.35525424281      
-0.0584940385762    
-3.87998658433      
0.595769999711      
-1.93996230267      
0.800447747005      
-1.03368022054      
0.562255937591      
-1.77145840336      
-0.277140462705     
-0.788885778004     
-0.969778587619     
0.24536825669       
-0.18997141701      
0.347212338491      
0.318106039937      
-0.667614296361     
0.263609928839      
-2.50870908576      
-0.143787085124     
-4.38740267222      
-0.744444175765     
-5.79446359267      
-1.32575171339      
-7.46326532698      
-1.62786084902      
-11.6034048996      
-1.6628907082       
-32.6473352331      
-10.8327003823      
-10.4493522958      
-31.4749221595      
-0.0884990806641    
-3.27331984553      
0.40226438736       
0.576832385354      
0.607041735138      
0.167066132193      
0.825277660448      
-0.801349797276     
0.956861918252      
-1.49304201087      
0.815423806473      
-1.5556814181       
0.0628968066979     
-0.795370500233     
-2.21033415576      
0.103290249432      
-5.72494536871      
-1.59854894741      
-2.4573744635       
-2.82815412747      
-0.368438892277     
-0.690734359001     
0.294353083935      
0.709659332027      
0.536844908773      
0.576993924784      
0.766871177762      
-0.328126482112     
0.935420058605      
-1.39116593919      
0.669953715069      
-2.03079914032      
-1.22245393356      
-1.9259802471       
-8.02586211008      
-0.714734461953     
-45.0155552464      
-11.4683184551      
-8.86985801956      
-28.5799444866      
0.111239730619      
-3.34438393363      
0.329959087793      
0.243992440345      
0.51095962489       
0.799681380439      
0.715868389619      
0.319796964718      
0.897300196845      
-0.273653468985     
0.85780752679       
-0.452436838522     
0.0896849787418     
-0.1449816571       
-2.50266060816      
-0.308554526938     
-6.40194520105      
-2.90790406925      
-3.10086613359      
-4.78570733852      
-0.598020082099     
-1.97162260126      
0.143051348269      
0.308220697727      
0.379034942358      
0.81636883307       
0.659297997645      
0.426573378312      
0.890563346555      
-0.117693770213     
0.727838570424      
-0.435108349796     
-0.637646408824     
-0.483180851033     
-5.79924149826      
-0.179246690457     
-36.6740479291      
-9.38234329355      
-8.12524428868      
-27.0758737145      
0.215306693394      
-3.00575002225      
0.330993507901      
0.228493517901      
0.494368188199      
0.872035033986      
0.73248353838       
0.802183903644      
0.926735461215      
0.533618550249      
0.88910909471       
0.360847722555      
0.251145184542      
0.310727293547      
-1.8133928642       
-0.348183546592     
-4.8588517444       
-2.71119847464      
-2.63282264423      
-5.06537238582      
-0.308964555168     
-2.11720506464      
0.287573531218      
0.198979696087      
0.500622972262      
0.900947354056      
0.736826522985      
0.826131233575      
0.920626081883      
0.503855471474      
0.807815046236      
0.169187318465      
-0.299733645537     
-0.114848625614     
-4.80412499806      
-0.0222894703751    
-33.0894066941      
-8.38832841807      
-7.9409227561       
-26.666914326       
0.216214673011      
-2.90079931428      
0.294768519712      
0.235659467221      
0.460483363641      
0.872175195139      
0.717794789023      
0.904569902769      
0.926382259729      
0.755640601027      
0.898783937551      
0.615660750247      
0.332966970364      
0.458632503875      
-1.42275859675      
-0.324691339381     
-3.97763880161      
-2.41847031065      
-2.34958790394      
-5.06133969619      
-0.139105516115     
-2.12383353861      
0.351904304273      
0.140205555365      
0.533430613544      
0.894277396086      
0.741434733483      
0.919477624636      
0.918391360988      
0.660055955531      
0.848353788979      
0.317732438504      
-0.158879652705     
-0.0103438211373    
-4.49746023991      
0.0605069236064     
-32.3291594684      
-8.10088301351      
-8.12445743515      
-27.3985221888      
0.203017217563      
-2.98253428663      
0.218128757299      
0.215388234328      
0.371190228202      
0.865911270131      
0.662066736242      
0.934757579835      
0.908229161275      
0.825341277016      
0.901793376098      
0.693535277459      
0.363147125881      
0.4977454           
-1.27942684223      
-0.329391820253     
-3.6540405722       
-2.31443154561      
-2.25637122509      
-5.11203201427      
-0.0778791371448    
-2.17252544677      
0.365886920855      
0.088038114983      
0.522471866468      
0.876944673207      
0.709658907051      
0.947260471445      
0.893370009971      
0.711709748838      
0.875145776269      
0.362803785803      
-0.0648331985869    
0.0098085123521     
-4.42278697049      
0.0592563154951     
-32.5940299623      
-8.19083423835      
-8.74491771712      
-30.0160749314      
0.206015429949      
-3.31372604046      
0.0234654167382     
0.155093781401      
0.114313746052      
0.855039638368      
0.496062840606      
0.944830594118      
0.850495894597      
0.850536399956      
0.903057474465      
0.721327952292      
0.374403641513      
0.509531309699      
-1.25466468136      
-0.341228645594     
-3.60248923432      
-2.29405283694      
-2.25183567632      
-5.11442269715      
-0.0797784639444    
-2.23475849662      
0.352304154885      
0.0280081199617     
0.473924628457      
0.854023714066      
0.62254785866       
0.957787876434      
0.815451306038      
0.733518641837      
0.891291262668      
0.372772582465      
0.0713932128231     
-0.0317962973942    
-4.41170162012      
-0.0633565334415    
-33.5135609266      
-8.66961160675      
-9.14898127556      
-34.5744898454      
0.274231162492      
-3.83738744202      
-0.541952784986     
0.0567631274472     
-0.629285981224     
0.831217324821      
-0.0315662186455    
0.941288600468      
0.623258989123      
0.859384667154      
0.891975087777      
0.736709467817      
0.410739730055      
0.512600263716      
-1.25597465036      
-0.371081311484     
-3.63502643596      
-2.31633705076      
-2.28199294259      
-5.14786268851      
-0.110593647273     
-2.37356541784      
0.284032903002      
-0.0718774711178    
0.283213391892      
0.820938440276      
0.327420983517      
0.954966737485      
0.547297965883      
0.734231405121      
0.818247259825      
0.371771640292      
0.35421305976       
-0.110951024052     
-3.95930250438      
-0.350079721706     
-33.2616470147      
-9.26313906504      
-5.98516519917      
-33.0260624941      
-0.0131902521197    
-3.08066670816      
-1.85918646198      
0.137898637681      
-1.66729158848      
0.813079003255      
-0.941086544261     
0.971986117965      
-0.229594776234     
0.911839517503      
0.448704995245      
0.777460071761      
0.67349399814       
0.533966406043      
-0.892773861498     
-0.433738312249     
-3.39391225673      
-2.30931633283      
-2.18622318953      
-5.43159489854      
-0.0922955336825    
-2.76527997997      
-0.299658133359     
-0.19369518629      
-0.845395568014     
0.797655882771      
-0.615296333389     
0.96655596791       
0.00182717840566    
0.861471768921      
0.57003499991       
0.649335301017      
0.827318931601      
0.235159623317      
-1.1680075522       
-0.236231588516     
-23.5582633003      
-7.0143686582       
-0.207053112422     
-17.9535102389      
-2.53259590625      
-1.42531244766      
-1.32050081362      
-1.15661090998      
0.0347586565329     
-1.67491828441      
0.463441475203      
-1.98571706873      
0.625482285894      
-1.80264872359      
0.658325489762      
-0.969009531975     
0.569708800398      
-0.12453862288      
0.124732958019      
-0.681864739358     
-2.06067242642      
-2.02355611958      
-1.55590604303      
-4.69737091068      
-0.00823118759871   
-2.855457605        
0.287938868571      
-1.82402405846      
0.539531550874      
-1.75426918607      
0.600475787626      
-1.37104180242      
0.558117669786      
-0.539684398915     
0.555175204738      
0.244495515628      
0.719427065211      
0.809929359173      
0.917234554157      
0.889097370045      
-6.06047580221      
-1.45895395463      
-37.4118980824      
-105.782403018      
-73.0307016619      
-33.8741059754      
-32.2029384872      
-12.715228009       
-15.1360725578      
-6.15664199288      
-9.68502267222      
-3.15656818518      
-7.80455985282      
-1.68560761434      
-8.61450309988      
-1.16173377576      
-13.3755762539      
-1.46625546883      
-28.7394743594      
-5.10300314502      
-7.11084945364      
-26.3645025444      
-5.23884721421      
-8.1929588208       
-2.35103771389      
-3.24507479712      
-1.58359328784      
-1.88121540464      
-1.33486338695      
-1.31300682678      
-1.22431776862      
-1.06760459954      
-1.33046852582      
-1.05234093189      
-2.00063022351      
-1.34585740596      
-4.87870480366      
-3.03686761674      
-5.19541175214      
-3.51310701597      
-3.99447977461      
-2.1525165709       
-2.37109153964      
-1.65361467305      
-1.8354525675       
-1.50301973434      
-1.59734482722      
-1.41945949128      
-1.44923806389      
-1.40675544342      
-1.40332000736      
-1.53890361279      
-1.53525583726      
-1.95601658113      
-2.05929680862      
-3.00386200794      
-4.24031528964      
-14.0011382945      
-2.97244247374      
-5.29334435939      
-1.63866489597      
-3.27725711047      
-1.21626275546      
-2.18399274393      
-1.06601095021      
-1.5464423321       
-1.00741173762      
-1.2519301948       
-1.09374096925      
-1.28069585583      
-1.55475918582      
-1.62958961202      
-3.49559231468      
-3.13011858478      
-9.76459119393      
-170.401246176      
-3.59325862335      
-62.9142234038      
-2.36265845649      
-33.2135980716      
-1.5321103342       
-18.7052675855      
-0.980292016612     
-11.4527943214      
-0.962487584699     
-7.95857170914      
-1.6371406537       
-6.39996624932      
-3.70620794619      
-5.329564051        
-9.88565453955      
-6.00644595551      
-11.681011426       
-26.5123088701      
-2.9809846017       
-7.47262709104      
-3.37112974598      
-3.94273334935      
-4.42135900352      
-2.24154129518      
-5.44144543098      
-1.01624280644      
-5.3552523679       
-0.0584937328434    
-3.87998156972      
0.595770048637      
-1.93996262123      
0.800447760469      
-1.03368013943      
0.562256111273      
-1.77145862629      
-0.27713930436      
-0.788885587977     
-0.969778138602     
0.245368207391      
-0.189971415161     
0.347212244434      
0.318106006788      
-0.66761483717      
0.263610985258      
-2.50870900415      
-0.143787070782     
-4.38741240128      
-0.744443233775     
-5.79448152597      
-1.32575050489      
-7.46328092902      
-1.6278617786       
-11.603413351       
-1.66289092497      
-32.6473289228      
-10.8326962823      
-10.4493495769      
-31.474873607       
-0.0885052299067    
-3.27333388635      
0.40226484372       
0.576832798996      
0.607041751137      
0.167068685739      
0.82527941398       
-0.801348220359     
0.956861153061      
-1.4930420382       
0.815424020798      
-1.55567325249      
0.0629018179891     
-0.795374020534     
-2.21033433899      
0.103290293039      
-5.72494181623      
-1.5985450977       
-2.45737481182      
-2.82815446915      
-0.368438443224     
-0.690734647208     
0.294353434128      
0.709659809763      
0.536843976674      
0.576997623833      
0.766874442639      
-0.328124367341     
0.935421752283      
-1.39117837324      
0.669954282035      
-2.03080546817      
-1.22246383115      
-1.92599586014      
-8.02586616672      
-0.714731228855     
-45.0157034886      
-11.4683252834      
-8.86990496895      
-28.5797230844      
0.111225799995      
-3.34437785914      
0.329959191848      
0.243994443185      
0.510962105498      
0.799681814465      
0.71587019699       
0.319802234268      
0.897299413232      
-0.273653120377     
0.857807200629      
-0.452433946342     
0.0896860185424     
-0.14497982827      
-2.50265865914      
-0.308559538272     
-6.40192013288      
-2.90790119313      
-3.10086011632      
-4.78572175647      
-0.598017948042     
-1.97162885297      
0.143051679896      
0.308220543231      
0.379034578613      
0.816369784684      
0.659298009163      
0.426573454168      
0.8905651828        
-0.117700146088     
0.727837652441      
-0.435119159685     
-0.637653636512     
-0.483190420472     
-5.79925016992      
-0.179236331046     
-36.6732157367      
-9.3823518285       
-8.12526873675      
-27.0757457586      
0.215291925457      
-3.00574468864      
0.330991622486      
0.228488917262      
0.494365097841      
0.872034352875      
0.732484829962      
0.802185223458      
0.926735656935      
0.533622210548      
0.889108813637      
0.36085365965       
0.251146909475      
0.310728558226      
-1.81337719431      
-0.348192035694     
-4.85879615011      
-2.71119648762      
-2.63282072527      
-5.06542771831      
-0.308955070239     
-2.11722596912      
0.287572440866      
0.198978572147      
0.500613818706      
0.900947859279      
0.736828687961      
0.826131199376      
0.920625859006      
0.503852815931      
0.807815745215      
0.169185081716      
-0.299739241079     
-0.114851515853     
-4.80414221424      
-0.0222709630508    
-33.0896024084      
-8.38836568925      
-7.94092153156      
-26.6667758621      
0.216193291176      
-2.90078395983      
0.294759279506      
0.235657312626      
0.460485659774      
0.872173879729      
0.717804137609      
0.904570375817      
0.926380047893      
0.755642192189      
0.89878260233       
0.615663676203      
0.332967713569      
0.458630787567      
-1.42273979602      
-0.324700593125     
-3.97759256146      
-2.41847351577      
-2.34958314664      
-5.06140765582      
-0.139093301165     
-2.12387317404      
0.351900010625      
0.140202623679      
0.533426942939      
0.894278358262      
0.741434189937      
0.919481837691      
0.918390470114      
0.660040109983      
0.848355056058      
0.317726461254      
-0.158884642795     
-0.0103369554994    
-4.49749167308      
0.0605317505939     
-32.3293999192      
-8.10089048975      
-8.12446177572      
-27.3983940447      
0.202993800992      
-2.98252516419      
0.218120650761      
0.2153861574        
0.371191357263      
0.865909634804      
0.662069728607      
0.934758542556      
0.908229840128      
0.82534422958       
0.901791956661      
0.693537741223      
0.363149041415      
0.497741656226      
-1.27941277827      
-0.329406737741     
-3.65397932404      
-2.31443465911      
-2.25636948836      
-5.11213129508      
-0.0778629353526    
-2.1725639247       
0.365884915237      
0.0880319981588     
0.522466461286      
0.876945526761      
0.709654893027      
0.947259887959      
0.893369075327      
0.711706059471      
0.875146921987      
0.362800464527      
-0.0648362007163    
0.00981391019894    
-4.42281278832      
0.0592760442451     
-32.5942622981      
-8.19084854719      
-8.74486771094      
-30.0158325354      
0.205992271012      
-3.31370191523      
0.023477924397      
0.155074617344      
0.114317091618      
0.85504176235       
0.496063899842      
0.944831369667      
0.850496407679      
0.850538196235      
0.903056164842      
0.721328992954      
0.374403512216      
0.509528267994      
-1.25464506217      
-0.341245646474     
-3.60253092878      
-2.29414193674      
-2.25184260571      
-5.1145418022       
-0.0797711491174    
-2.23478562836      
0.352302924511      
0.0280015671939     
0.473919629043      
0.854024100652      
0.622543902515      
0.957787656054      
0.815449966816      
0.733516224044      
0.891290586215      
0.37276315066       
0.0713852358115     
-0.0318057418929    
-4.41173311026      
-0.0633302322008    
-33.5139716776      
-8.66960786759      
-9.14898782639      
-34.5743319774      
0.27420723589       
-3.8373603165       
-0.541920810316     
0.0567780413498     
-0.629267611584     
0.831217870629      
-0.0315688914885    
0.94129004108       
0.62325174872       
0.85938474934       
0.891972215589      
0.736708014292      
0.410738593454      
0.512596828463      
-1.25596957814      
-0.371087796548     
-3.63499025287      
-2.3163332401       
-2.28200263206      
-5.147929249        
-0.110588816863     
-2.37358605038      
0.284030317         
-0.0718816692525    
0.283208871586      
0.820938424211      
0.327418377704      
0.954967091749      
0.547294928861      
0.734228474737      
0.818245476827      
0.371778578043      
0.354216051785      
-0.11098969485      
-3.95932382326      
-0.350049648794     
-33.2619235004      
-9.26314333511      
-5.98519939733      
-33.0260396601      
-0.0132119236385    
-3.080667689        
-1.85918253321      
0.137899890557      
-1.6673129815       
0.813080462056      
-0.941130728399     
0.971985845517      
-0.229608255968     
0.911835651234      
0.448680002652      
0.777455384727      
0.673495641508      
0.533970683311      
-0.892780895687     
-0.433746826315     
-3.39384323561      
-2.30930086785      
-2.18624460398      
-5.43172892391      
-0.0922990627032    
-2.76527892534      
-0.299733899354     
-0.193724526991     
-0.845393151676     
0.797654144104      
-0.615314677528     
0.966557333642      
0.0018623291427     
0.861462782624      
0.570031345878      
0.649308890427      
0.827309599696      
0.235139710485      
-1.16801158696      
-0.236216800125     
-23.5584708485      
-7.01437562446      
-0.207039031708     
-17.9530436687      
-2.53222763772      
-1.42540019902      
-1.32066215814      
-1.1566738747       
0.0347053213864     
-1.67489288769      
0.463454553517      
-1.98577978923      
0.625478552333      
-1.80264717361      
0.658335247552      
-0.9690249333       
0.56970638853       
-0.124560113843     
0.124755765554      
-0.681833918839     
-2.0606158669       
-2.02354001069      
-1.55590654764      
-4.69742091278      
-0.00823116182821   
-2.85550872816      
0.287908915372      
-1.82402966183      
0.539558566778      
-1.75413982138      
0.600465831351      
-1.37109729938      
0.558119291889      
-0.539709117256     
0.555201693799      
0.244558932764      
0.719370204639      
0.809952769419      
0.917301074242      
0.889090261917      
-6.0601621118       
-1.45891884706      
-37.3772716893      
-105.776536636      
-73.0263837382      
-33.877208409       
-32.2020166277      
-12.7159648953      
-15.1359133742      
-6.15672270273      
-9.6839568862       
-3.15659959731      
-7.80459220552      
-1.68559879167      
-8.61375716431      
-1.16183949879      
-13.3755886664      
-1.46639306622      
-28.7396240454      
-5.1035610446       
-7.10956829535      
-26.3652980446      
-5.2384651484       
-8.19276499808      
-2.35122634228      
-3.24519798778      
-1.58361215947      
-1.88128142567      
-1.33485279677      
-1.31300021524      
-1.22431366706      
-1.06754441098      
-1.33047093918      
-1.0523153853       
-2.00072975751      
-1.3459205775       
-4.87876559389      
-3.03692601037      
-5.19520544279      
-3.51331786942      
-3.99439085734      
-2.15271668091      
-2.37113884006      
-1.65363370485      
-1.83545683991      
-1.5030198417       
-1.59734390512      
-1.41946486842      
-1.4492410052       
-1.40676035517      
-1.4033276336       
-1.53891203633      
-1.53526868032      
-1.95615816181      
-2.05932096552      
-3.00406458814      
-4.24057706642      
-14.005701249       
-2.97223016856      
-5.29346154451      