# vtk DataFile Version 3.0
PyPan results file. Generated by PyPan, USU AeroLab (c) 2020.
ASCII
DATASET POLYDATA
POINTS 492 float
-4.75               -4.0                0.0                 
-4.75               4.0                 0.0                 
-4.7255282402       -4.00441503525      -0.00143460487016   
-4.7255282402       -4.00441503525      0.00143460487016    
-4.7255282402       -4.00272893906      -0.00375584419817   
-4.7255282402       -4.00272893906      0.00375584419817    
-4.7255282402       -4.0                -0.00464247865602   
-4.7255282402       -4.0                0.00464247865602    
-4.7255282402       4.0                 -0.00464247865602   
-4.7255282402       4.0                 0.00464247865602    
-4.7255282402       4.00272893906       -0.00375584419817   
-4.7255282402       4.00272893906       0.00375584419817    
-4.7255282402       4.00441503525       -0.00143460487016   
-4.7255282402       4.00441503525       0.00143460487016    
-4.6545085907       -4.01323318481      -0.00429976172745   
-4.6545085907       -4.01323318481      0.00429976172745    
-4.6545085907       -4.00817871094      -0.0112569229677    
-4.6545085907       -4.00817871094      0.0112569229677     
-4.6545085907       -4.0                -0.0139143215492    
-4.6545085907       -4.0                0.0139143215492     
-4.6545085907       4.0                 -0.0139143215492    
-4.6545085907       4.0                 0.0139143215492     
-4.6545085907       4.00817871094       -0.0112569229677    
-4.6545085907       4.00817871094       0.0112569229677     
-4.6545085907       4.01323318481       -0.00429976172745   
-4.6545085907       4.01323318481       0.00429976172745    
-4.65211296082      -3.90211296082      0.0                 
-4.65211296082      3.90211296082       0.0                 
-4.62764120102      -3.90211296082      -0.00464247865602   
-4.62764120102      -3.90211296082      0.00464247865602    
-4.62764120102      3.90211296082       -0.00464247865602   
-4.62764120102      3.90211296082       0.00464247865602    
-4.55662155151      -3.90211296082      -0.0139143215492    
-4.55662155151      -3.90211296082      0.0139143215492     
-4.55662155151      3.90211296082       -0.0139143215492    
-4.55662155151      3.90211296082       0.0139143215492     
-4.54389286041      -4.02558851242      -0.00831415317953   
-4.54389286041      -4.02558851242      0.00831415317953    
-4.54389286041      -4.01581430435      -0.0217667371035    
-4.54389286041      -4.01581430435      0.0217667371035     
-4.54389286041      -4.0                -0.0269051659852    
-4.54389286041      -4.0                0.0269051659852     
-4.54389286041      4.0                 -0.0269051659852    
-4.54389286041      4.0                 0.0269051659852     
-4.54389286041      4.01581430435       -0.0217667371035    
-4.54389286041      4.01581430435       0.0217667371035     
-4.54389286041      4.02558851242       -0.00831415317953   
-4.54389286041      4.02558851242       0.00831415317953    
-4.44600582123      -3.90211296082      -0.0269051659852    
-4.44600582123      -3.90211296082      0.0269051659852     
-4.44600582123      3.90211296082       -0.0269051659852    
-4.44600582123      3.90211296082       0.0269051659852     
-4.4045085907       -4.03891468048      -0.0126441745088    
-4.4045085907       -4.03891468048      0.0126441745088     
-4.4045085907       -4.02405071259      -0.0331028774381    
-4.4045085907       -4.02405071259      0.0331028774381     
-4.4045085907       -4.0                -0.0409174077213    
-4.4045085907       -4.0                0.0409174077213     
-4.4045085907       4.0                 -0.0409174077213    
-4.4045085907       4.0                 0.0409174077213     
-4.4045085907       4.02405071259       -0.0331028774381    
-4.4045085907       4.02405071259       0.0331028774381     
-4.4045085907       4.03891468048       -0.0126441745088    
-4.4045085907       4.03891468048       0.0126441745088     
-4.36803388596      -3.61803388596      0.0                 
-4.36803388596      3.61803388596       0.0                 
-4.34356212616      -3.61803388596      -0.00464247865602   
-4.34356212616      -3.61803388596      0.00464247865602    
-4.34356212616      3.61803388596       -0.00464247865602   
-4.34356212616      3.61803388596       0.00464247865602    
-4.30662155151      -3.90211296082      -0.0409174077213    
-4.30662155151      -3.90211296082      0.0409174077213     
-4.30662155151      3.90211296082       -0.0409174077213    
-4.30662155151      3.90211296082       0.0409174077213     
-4.27254247665      -3.61803388596      -0.0139143215492    
-4.27254247665      -3.61803388596      0.0139143215492     
-4.27254247665      3.61803388596       -0.0139143215492    
-4.27254247665      3.61803388596       0.0139143215492     
-4.25               -4.05034923553      -0.0163594372571    
-4.25               -4.05034923553      0.0163594372571     
-4.25               -4.03111743927      -0.0428295619786    
-4.25               -4.03111743927      0.0428295619786     
-4.25               -4.0                -0.0529402531683    
-4.25               -4.0                0.0529402531683     
-4.25               4.0                 -0.0529402531683    
-4.25               4.0                 0.0529402531683     
-4.25               4.03111743927       -0.0428295619786    
-4.25               4.03111743927       0.0428295619786     
-4.25               4.05034923553       -0.0163594372571    
-4.25               4.05034923553       0.0163594372571     
-4.16192674637      -3.61803388596      -0.0269051659852    
-4.16192674637      -3.61803388596      0.0269051659852     
-4.16192674637      3.61803388596       -0.0269051659852    
-4.16192674637      3.61803388596       0.0269051659852     
-4.15211296082      -3.90211296082      -0.0529402531683    
-4.15211296082      -3.90211296082      0.0529402531683     
-4.15211296082      3.90211296082       -0.0529402531683    
-4.15211296082      3.90211296082       0.0529402531683     
-4.0954914093       -4.05665874481      -0.0184096004814    
-4.0954914093       -4.05665874481      0.0184096004814     
-4.0954914093       -4.03501701355      -0.0481969565153    
-4.0954914093       -4.03501701355      0.0481969565153     
-4.0954914093       -4.0                -0.0595747157931    
-4.0954914093       -4.0                0.0595747157931     
-4.0954914093       4.0                 -0.0595747157931    
-4.0954914093       4.0                 0.0595747157931     
-4.0954914093       4.03501701355       -0.0481969565153    
-4.0954914093       4.03501701355       0.0481969565153     
-4.0954914093       4.05665874481       -0.0184096004814    
-4.0954914093       4.05665874481       0.0184096004814     
-4.02254247665      -3.61803388596      -0.0409174077213    
-4.02254247665      -3.61803388596      0.0409174077213     
-4.02254247665      3.61803388596       -0.0409174077213    
-4.02254247665      3.61803388596       0.0409174077213     
-3.99760460854      -3.90211296082      -0.0595747157931    
-3.99760460854      -3.90211296082      0.0595747157931     
-3.99760460854      3.90211296082       -0.0595747157931    
-3.99760460854      3.90211296082       0.0595747157931     
-3.95610737801      -4.05488920212      -0.0178346466273    
-3.95610737801      -4.05488920212      0.0178346466273     
-3.95610737801      -4.03392362595      -0.046691711992     
-3.95610737801      -4.03392362595      0.046691711992      
-3.95610737801      -4.0                -0.0577141307294    
-3.95610737801      -4.0                0.0577141307294     
-3.95610737801      4.0                 -0.0577141307294    
-3.95610737801      4.0                 0.0577141307294     
-3.95610737801      4.03392362595       -0.046691711992     
-3.95610737801      4.03392362595       0.046691711992      
-3.95610737801      4.05488920212       -0.0178346466273    
-3.95610737801      4.05488920212       0.0178346466273     
-3.92557048798      -3.17557048798      0.0                 
-3.92557048798      3.17557048798       0.0                 
-3.90109872818      -3.17557048798      -0.00464247865602   
-3.90109872818      -3.17557048798      0.00464247865602    
-3.90109872818      3.17557048798       -0.00464247865602   
-3.90109872818      3.17557048798       0.00464247865602    
-3.86803388596      -3.61803388596      -0.0529402531683    
-3.86803388596      -3.61803388596      0.0529402531683     
-3.86803388596      3.61803388596       -0.0529402531683    
-3.86803388596      3.61803388596       0.0529402531683     
-3.85822033882      -3.90211296082      -0.0577141307294    
-3.85822033882      -3.90211296082      0.0577141307294     
-3.85822033882      3.90211296082       -0.0577141307294    
-3.85822033882      3.90211296082       0.0577141307294     
-3.8454914093       -4.0437951088       -0.0142299029976    
-3.8454914093       -4.0437951088       0.0142299029976     
-3.8454914093       -4.02706670761      -0.037254370749     
-3.8454914093       -4.02706670761      0.037254370749      
-3.8454914093       -4.0                -0.0460489317775    
-3.8454914093       -4.0                0.0460489317775     
-3.8454914093       4.0                 -0.0460489317775    
-3.8454914093       4.0                 0.0460489317775     
-3.8454914093       4.02706670761       -0.037254370749     
-3.8454914093       4.02706670761       0.037254370749      
-3.8454914093       4.0437951088        -0.0142299029976    
-3.8454914093       4.0437951088        0.0142299029976     
-3.83007907867      -3.17557048798      -0.0139143215492    
-3.83007907867      -3.17557048798      0.0139143215492     
-3.83007907867      3.17557048798       -0.0139143215492    
-3.83007907867      3.17557048798       0.0139143215492     
-3.7744717598       -4.0246257782       -0.00800147373229   
[...]
CELL_DATA 980
SCALARS pressure_coefficient float 1
LOOKUP_TABLE default
0.180833137078      
0.433351104473      
0.396645392211      
0.413794211204      
0.233829031792      
0.148933481138      
0.0687960750858     
-0.0402040094095    
-0.0783918758901    
-0.194199766908     
-0.168865429687     
-0.230536244958     
-0.281456390218     
-0.285070646878     
-0.456706939781     
-0.387240870683     
-0.537477651629     
-0.414720989061     
-0.346824737041     
-0.0146020149675    
0.537421073627      
0.543757827718      
0.399288766602      
0.248291325531      
0.118120042198      
0.0606587230214     
0.0580357963746     
0.0296832892862     
0.0224439652143     
0.0177446345282     
-0.0559505638761    
-0.0451433218263    
-0.0829998134977    
-0.0803150783233    
-0.150144856996     
-0.175204641837     
-0.454571069452     
-0.658315192878     
-1.71099401025      
-3.16480883839      
0.24787141738       
0.387897581453      
0.361809918511      
0.393960867504      
0.231964085362      
0.262660075922      
0.11622278737       
0.102382792107      
-0.000685555412472  
-0.0395790099234    
-0.13560587634      
-0.175414812119     
-0.287878074157     
-0.316122214578     
-0.435762390351     
-0.484392972649     
-0.628652195427     
-0.639076038075     
-0.584293438823     
-0.255159155261     
0.451945087055      
0.477126598542      
0.281368031353      
0.102861273997      
0.103319102507      
-0.0247827711946    
-0.00815064266055   
-0.0565497346097    
-0.0574381916433    
-0.0767655150951    
-0.087795869517     
-0.0987916403339    
-0.133755236402     
-0.145346408005     
-0.227988754846     
-0.226539293875     
-0.420368911239     
-0.532953620216     
-1.28314270134      
-2.08329724437      
0.297143012252      
0.432290391565      
0.366802907998      
0.378255768385      
0.240518949952      
0.270265540826      
0.118867494096      
0.13199567881       
0.00335366596028    
-0.00340686568106   
-0.128647478635     
-0.154211667789     
-0.287851513583     
-0.32924861021      
-0.48310398117      
-0.52430765004      
-0.73306387098      
-0.70342536638      
-0.708220429067     
-0.421297224985     
0.450055781454      
0.49347857608       
0.286712161798      
0.159964765996      
0.0750215433355     
-0.0231821179232    
-0.0286735722825    
-0.0862476796062    
-0.0810550444304    
-0.106034634749     
-0.1118720667       
-0.118119541695     
-0.149540030064     
-0.138540330445     
-0.22669245118      
-0.194168693528     
-0.396423957109     
-0.489347394468     
-1.26276332484      
-1.98178158611      
0.290306651329      
0.442477809674      
0.372805209613      
0.369578187089      
0.23351860192       
0.248532895054      
0.111480149254      
0.115895479568      
-0.00481000805409   
-0.00939276701837   
-0.135229613281     
-0.152360935948     
-0.293698971809     
-0.322599393327     
-0.492291261412     
-0.521227631191     
-0.741782359399     
-0.738156439561     
-0.71100370954      
-0.532892444314     
0.461459799399      
0.497379425502      
0.289809131747      
0.207041547838      
0.0677804259331     
0.0110158950447     
-0.0404893270104    
-0.068752247072     
-0.0952212857255    
-0.0982443842967    
-0.128673829762     
-0.113429058116     
-0.168198263745     
-0.137846281644     
-0.251706084657     
-0.200520490324     
-0.398799274748     
-0.460408711711     
-1.1877954525       
-1.78682103479      
0.201882244122      
0.425791786696      
0.374934161687      
0.359368999288      
0.210263572408      
0.226256213172      
0.0973453987785     
0.100196015879      
-0.0156969796904    
-0.0206341836092    
-0.139933460817     
-0.159242129382     
-0.287774562112     
-0.32415345576      
-0.474785105343     
-0.519300703525     
-0.712612064123     
-0.74561739018      
-0.662675510592     
-0.5676394705       
0.460685121372      
0.488548161443      
0.280345907447      
0.223446386594      
0.0596872812868     
0.0271860680723     
-0.0515966460456    
-0.057662077925     
-0.113893851542     
-0.091960390885     
-0.155619729042     
-0.110781272009     
-0.203668444021     
-0.13979346913      
-0.311205858708     
-0.213817651875     
-0.421975578013     
-0.437996973031     
-1.05660353283      
-1.60453930173      
0.110951914287      
0.406430566431      
0.369787141705      
0.35273066912       
0.19485905283       
0.230439582407      
0.0897530633127     
0.108893926305      
-0.0189628067921    
-0.00950408698467   
-0.137038762832     
-0.148204824175     
-0.275364139301     
-0.313726499662     
-0.452809119813     
-0.508544453045     
-0.681003675214     
-0.733891054332     
-0.620094995408     
-0.562062059456     
0.451031105984      
0.478507531457      
0.268214659248      
0.219833212822      
0.05333322038       
0.0281214006776     
-0.0568267498578    
-0.0533982147677    
-0.123959704236     
-0.0844778501525    
-0.171475004192     
-0.100809061709     
-0.225404934179     
-0.129298926264     
-0.348577764821     
-0.201692071489     
-0.440986741147     
-0.435678312931     
-0.998287265691     
-1.64110978741      
0.0983300519594     
0.397247478247      
0.358373061945      
0.347135134039      
0.194268549521      
0.247974365456      
0.090802142722      
0.129785976931      
-0.0155855037816    
0.0112936216396     
-0.132948286246     
-0.130686622145     
-0.270366846292     
-0.301363884035     
-0.445358135141     
-0.500265368422     
-0.673098484437     
-0.723734891885     
-0.615927849933     
-0.549480076003     
0.441816344003      
0.474108765684      
0.263757993997      
0.211594316602      
0.0534142043423     
0.0242742640123     
-0.0547420252997    
-0.0512353981784    
-0.12280803993      
-0.0765661237174    
-0.169108975422     
-0.0875961912421    
-0.221075655261     
-0.110587075853     
-0.339458318924     
-0.172632124471     
-0.437082968008     
-0.437055631652     
-1.01099674776      
-1.77179385607      
0.136311743019      
0.389165099286      
0.345852569208      
0.341195919741      
0.196397550641      
0.259979507638      
0.100263468354      
0.146256879733      
-0.00125474710109   
0.0226282271804     
-0.123363374554     
-0.124054068064     
-0.269511614543     
-0.299275609277     
-0.44163319227      
-0.502640945872     
-0.666817990769     
-0.727533956998     
-0.604350128972     
-0.550523079503     
0.443960905247      
0.474498086586      
0.258305238567      
0.210975716334      
0.0468855309537     
0.0245244491028     
-0.0666978862081    
-0.0511392470707    
-0.131808674551     
-0.0779448059476    
-0.169686514592     
-0.0862844695872    
-0.216303056156     
-0.0997356054813    
-0.328897259538     
-0.15637349604      
-0.420767180076     
-0.417578809108     
-0.956215439541     
-1.72089204838      
0.377779985401      
0.426118755762      
0.292287620957      
0.338020002715      
0.208880366444      
0.301599801632      
0.138757499233      
0.175615089344      
0.0551853892903     
0.0428399080004     
-0.0611889899741    
-0.104323757324     
-0.21619797768      
-0.279641826376     
-0.414020757684     
-0.49092545855      
-0.646709000291     
-0.720098891105     
-0.544209794018     
-0.535199567614     
0.463058694922      
0.477811695409      
0.227684458101      
0.20895567912       
0.0217977454723     
0.0271720944319     
-0.0730887394227    
-0.048665891697     
-0.108405050055     
-0.0783080286604    
-0.118652841262     
-0.0832838836131    
-0.136741695199     
-0.0787229740773    
-0.208152218254     
-0.0981506387937    
-0.319058275116     
-0.359545460641     
-0.817054219161     
-1.56518412388      
0.399675319885      
0.466742965833      
0.265407056528      
0.363820438945      
0.19422871653       
0.213343902597      
0.0968887224686     
0.10793855494       
0.00928243767695    
0.0213920090148     
-0.0836839355887    
-0.0830116424132    
-0.200618194391     
-0.215395746868     
-0.359798368711     
-0.38085104339      
-0.611953478304     
-0.654018520258     
-0.438645824363     
-0.487021640566     
0.486332114729      
0.504493657179      
0.268493890067      
0.272053867176      
0.0586717714914     
0.070631553158      
-0.0250383002884    
-0.0460496239965    
-0.0484787728422    
-0.100910273064     
-0.0518702860008    
-0.128043765703     
-0.0477334809596    
-0.144488244069     
-0.0410316443515    
-0.141860233382     
-0.148529154364     
-0.2640673808       
-0.487820516039     
-1.02977211545      
-0.316115688864     
-0.276831175092     
-0.254099306039     
-0.171339401553     
-0.196442800497     
-0.147926077876     
-0.176347729772     
-0.164961105269     
-0.185654135249     
-0.202745743964     
-0.225677185556     
-0.26145633252      
-0.303321668381     
-0.346083793538     
-0.432956811204     
-0.488095241128     
-0.665296274457     
-0.356132644472     
-0.917109065142     
-0.976649310304     
-0.337162287509     
-0.578814340326     
-0.285227313238     
-0.436098409579     
-0.278839547992     
-0.372994498595     
-0.288239669378     
-0.351783558872     
-0.320763745793     
-0.35993436157      
-0.384503212017     
-0.388705706683     
-0.490355746428     
-0.446122051654     
-0.753310762073     
-0.267586458911     
-1.26566225719      
-1.2557858487       
-0.461143134359     
-0.739825421387     
-0.392950013324     
-0.550185893031     
-0.372003300057     
-0.458957155117     
-0.367144459226     
-0.413768260389     
-0.383239853437     
-0.395400661188     
-0.42605452042      
-0.390493099094     
-0.503032489144     
-0.390972057354     
-0.71267547051      
0.104978562563      
-1.23827004468      
-1.47590005132      
-0.50890694528      
-0.818114442582     
-0.426739189683     
-0.580385485251     
-0.395331660084     
-0.467648633988     
-0.380833556951     
-0.407977280122     
-0.384854675141     
-0.375251115262     
-0.411169507053     
-0.351448783445     
-0.463183994632     
-0.31033069045      
-0.59925258968      
0.526161801927      
-0.591252520523     
-1.34195022931      
-0.320767333878     
-0.654826797551     
-0.24194230751      
-0.416047305034     
-0.228501924632     
-0.310893698473     
-0.223782815775     
-0.24694810326      
-0.219673942563     
-0.190249771697     
-0.206742097535     
-0.101290156748     
-0.154267205229     
0.123599470215      
0.0410566783469     
0.846935303076      
0.180834570593      
0.433351248648      
0.39664542011       
0.413793710628      
0.23382881358       
0.148933285886      
0.0687960533064     
-0.0402039884939    
-0.0783917777683    
-0.194199696662     
-0.168865433254     
-0.230536314612     
-0.281456454319     
-0.285070834487     
-0.45670686988      
-0.387241071219     
-0.537477615935     
-0.414721170062     
-0.346824661802     
-0.0146016613863    
0.537421415732      
0.543758073642      
0.399288495519      
0.248291117012      
0.118120010778      
0.0606586049547     
0.0580357156831     
0.0296831106597     
0.0224438691741     
0.0177443997886     
-0.0559505221199    
-0.0451434612002    
-0.0829997892751    
-0.0803152075909    
-0.150145165003     
-0.175205181161     
-0.45457143219      
-0.658316447429     
-1.71098931945      
-3.16480956896      
0.247872990786      
0.387898290556      
0.36181003143       
0.393960907379      
0.231964094173      
0.262659722004      
0.116222655026      
0.102382382909      
-0.000685664709316  
-0.0395792895558    
-0.135605828924     
-0.175414985091     
-0.287878200718     
-0.31612246015      
-0.43576273189      
-0.484393123384     
-0.628652741822     
-0.639075941157     
-0.58429230869      
-0.255158757521     
0.451945470173      
0.477126878117      
0.281367951672      
0.102861492253      
0.103318803679      
-0.0247826564436    
-0.0081508015909    
-0.0565497633908    
-0.0574383617524    
-0.0767656978289    
-0.0877960401888    
-0.0987918440445    
-0.133755353498     
-0.14534660546      
-0.227988698361     
-0.226539282874     
-0.420369087693     
-0.532953356049     
-1.28313816723      
-2.08329083369      
0.297144897138      
0.432291071527      
0.366802974744      
0.378256061041      
0.240519332968      
0.27026574174       
0.118867502236      
0.131995537513      
0.00335375660434    
-0.00340708822166   
-0.128647351716     
-0.15421166452      
-0.287851436734     
-0.329248671259     
-0.483103995679     
-0.524307803773     
-0.733064348883     
-0.703425960797     
-0.70822180482      
-0.421297524289     
0.450056131123      
0.493478762051      
0.286712051423      
0.159964828897      
0.075021376722      
-0.0231820376892    
-0.0286737946426    
-0.0862477246091    
-0.0810552678714    
-0.106034877944     
-0.111872157365     
-0.118119656328     
-0.149539882348     
-0.138540374035     
-0.22669194575      
-0.19416884064      
-0.396424461994     
-0.48934674438      
-1.26276523919      
-1.98177955562      
0.290308953435      
0.44247876091       
0.372805041595      
0.369578143884      
0.233518583345      
0.248532944194      
0.111480213401      
0.115895251768      
-0.00480999608816   
-0.00939298448959   
-0.135229424566     
-0.152360890377     
-0.293699030714     
-0.322599291239     
-0.492291515063     
-0.521227452511     
-0.741782527221     
-0.738156384931     
-0.711001036153     
-0.532891349786     
0.461460015932      
0.49737963146       
0.289809159441      
0.207041580579      
0.0677804225747     
0.0110159736325     
-0.0404895831063    
-0.0687524152424    
-0.0952215481708    
-0.0982447061321    
-0.128673797686     
-0.113429226297     
-0.168198242088     
-0.137846422257     
-0.251705559838     
-0.200520829612     
-0.398798711467     
-0.460407934284     
-1.18780584492      
-1.78682369207      
0.201883329954      
0.425792325355      
0.37493440097       
0.359369217244      
0.210263823148      
0.226255437198      
0.0973450268559     
0.100195536892      
-0.0156971382807    
-0.0206346534157    
-0.139933436947     
-0.159242195312     
-0.287774679146     
-0.324153607754     
-0.474785322191     
-0.519300881806     
-0.712611429194     
-0.745616876884     
-0.662674636114     
-0.567639298625     
0.460685504192      
0.488548249069      
0.280345899833      
0.223446949276      
0.0596870749104     
0.0271862383265     
-0.0515969974464    
-0.0576621343599    
-0.113894391187     
-0.0919607370659    
-0.155619997624     
-0.110781427181     
-0.203668440371     
-0.13979370821      
-0.311206864433     
-0.213817966911     
-0.421974386726     
-0.437996280258     
-1.05660103324      
-1.60453447238      
0.11095123896       
0.406430772498      
0.369785816816      
0.352729676515      
0.194856371598      
0.230438529184      
0.0897525389913     
0.108893434954      
-0.0189630744165    
-0.00950438894841   
-0.137038708987     
-0.148204773195     
-0.275364179143     
-0.313726499289     
-0.45280880726      
-0.508544848719     
-0.681004368198     
-0.733891242741     
-0.62009537473      
-0.562062225727     
0.451031188936      
0.47850749312       
0.268214491221      
0.219833184645      
0.053332659076      
0.0281216321778     
-0.0568271282956    
-0.0533982864239    
-0.12396047229      
-0.0844782412342    
-0.171476403569     
-0.100809365755     
-0.22540572996      
-0.129298967551     
-0.348580272401     
-0.201692014362     
-0.440992628424     
-0.435677966452     
-0.998279468234     
-1.6411061274       
0.0983259834832     
0.397247855851      
0.35837238507       
0.347134128028      
0.194268218649      
0.247975750348      
0.0908024443417     
0.129786840634      
-0.0155851231361    
0.0112941286017     
-0.132947549568     
-0.130685959805     
-0.270366203002     
-0.301363695403     
-0.445358603758     
-0.500265333445     
-0.673096018973     
-0.723737136684     
-0.615939901123     
-0.549489223267     
0.441815873503      
0.474108659218      
0.263757663682      
0.211594426153      
0.0534140189033     
0.0242739463762     
-0.0547420876644    
-0.0512354833593    
-0.122808453753     
-0.0765662909051    
-0.169108627565     
-0.0875955784202    
-0.221076139122     
-0.110586523737     
-0.339456764141     
-0.172629824977     
-0.43708404978      
-0.437054594582     
-1.011022257        
-1.77180347134      
0.136307437509      
0.389164034718      
0.345852572366      
0.341196293746      
0.196397345647      
0.25997952015       
0.100262520383      
0.146255995386      
-0.00125517525121   
0.0226281300531     
-0.123362762967     
-0.124053835855     
-0.269510626169     
-0.29927526008      
-0.441633466883     
-0.502641251109     
-0.666818850612     
-0.72753457735      
-0.604342055843     
-0.550516408514     
0.443960670233      
0.474497987979      
0.258305263695      
0.210975174249      
0.046885450457      
0.0245240842815     
-0.0666986940035    
-0.0511398500243    
-0.131810003884     
-0.0779454435678    
-0.169688016454     
-0.0862849197572    
-0.216304107046     
-0.0997352768305    
-0.328898610886     
-0.156374564515     
-0.420764798998     
-0.417577275343     
-0.956202137089     
-1.72087906633      
0.37778039835       
0.426117913429      
0.292287498168      
0.338022997528      
0.208880417544      
0.30160002013       
0.138756536578      
0.175614980417      
0.0551852670223     
0.0428404722544     
-0.0611881832254    
-0.104322477187     
-0.216196300929     
-0.279640443544     
-0.414020910515     
-0.490925530245     
-0.646707511605     
-0.72009772453      
-0.544201894972     
-0.535192785482     
0.463058413647      
0.477811757908      
0.227684167393      
0.208955191663      
0.0217981352707     
0.0271721560276     
-0.0730893664083    
-0.0486663989471    
-0.108406105954     
-0.078309075119     
-0.118653469101     
-0.0832835855698    
-0.136740457245     
-0.0787214168494    
-0.208149909766     
-0.0981494704963    
-0.319055672655     
-0.359545576569     
-0.817041916094     
-1.56517413734      
0.3996765296        
0.466743457559      
0.265406950824      
0.363822044357      
0.194228477037      
0.213343552129      
0.0968884805582     
0.107937614968      
0.00928191484221    
0.0213916769497     
-0.0836837272754    
-0.0830114625444    
-0.200616621139     
-0.215395108116     
-0.35979726431      
-0.380849306983     
-0.611946302142     
-0.654014371294     
-0.438643437555     
-0.487020199393     
0.486331970487      
0.504493668146      
0.26849425991       
0.272052827212      
0.0586730890219     
0.0706319651626     
-0.0250389845843    
-0.046050770443     
-0.0484789064488    
-0.100910838385     
-0.0518701264785    
-0.128044176599     
-0.0477341818799    
-0.144488443845     
-0.0410338892933    
-0.14186137571      
-0.148527325785     
-0.2640629513       
-0.487803423761     
-1.02976110765      
-0.316060584093     
-0.276748263531     
-0.254091923728     
-0.171341450477     
-0.196437704122     
-0.147915832117     
-0.17634647249      
-0.1649614658       
-0.185654513727     
-0.202743994042     
-0.225675725369     
-0.261450325157     
-0.30331927588      
-0.346083516254     
-0.432955581716     
-0.488101044121     
-0.665296383769     
-0.356152518744     
-0.917161780303     
-0.976344522622     
-0.337155003647     
-0.578804249318     
-0.285222655127     
-0.436067951622     
-0.278831000627     
-0.372983953622     
-0.28823861844      
-0.351781526007     
-0.320764122615     
-0.359929351044     
-0.384499290479     
-0.388694428896     
-0.49035299915      
-0.446121942782     
-0.753305849527     
-0.267590792677     
-1.26571084775      
-1.25579744732      
-0.461138107448     
-0.739848097005     
-0.392958582321     
-0.550185383077     
-0.372002727232     
-0.458955325048     
-0.367144046423     
-0.413769565539     
-0.38324081102      
-0.395400050568     
-0.426053327343     
-0.390492297776     
-0.503031186038     
-0.390980432413     
-0.712679064455     
0.104960416223      
-1.23819923589      
-1.47569019695      
-0.508907691221     
-0.818116516283     