# vtk DataFile Version 3.0
PyPan results file. Generated by PyPan, USU AeroLab (c) 2020.
ASCII
DATASET POLYDATA
POINTS 492 float
-4.75               -4.0                0.0                 
-4.75               4.0                 0.0                 
-4.7255282402       -4.00441503525      -0.00143460487016   
-4.7255282402       -4.00441503525      0.00143460487016    
-4.7255282402       -4.00272893906      -0.00375584419817   
-4.7255282402       -4.00272893906      0.00375584419817    
-4.7255282402       -4.0                -0.00464247865602   
-4.7255282402       -4.0                0.00464247865602    
-4.7255282402       4.0                 -0.00464247865602   
-4.7255282402       4.0                 0.00464247865602    
-4.7255282402       4.00272893906       -0.00375584419817   
-4.7255282402       4.00272893906       0.00375584419817    
-4.7255282402       4.00441503525       -0.00143460487016   
-4.7255282402       4.00441503525       0.00143460487016    
-4.6545085907       -4.01323318481      -0.00429976172745   
-4.6545085907       -4.01323318481      0.00429976172745    
-4.6545085907       -4.00817871094      -0.0112569229677    
-4.6545085907       -4.00817871094      0.0112569229677     
-4.6545085907       -4.0                -0.0139143215492    
-4.6545085907       -4.0                0.0139143215492     
-4.6545085907       4.0                 -0.0139143215492    
-4.6545085907       4.0                 0.0139143215492     
-4.6545085907       4.00817871094       -0.0112569229677    
-4.6545085907       4.00817871094       0.0112569229677     
-4.6545085907       4.01323318481       -0.00429976172745   
-4.6545085907       4.01323318481       0.00429976172745    
-4.65211296082      -3.90211296082      0.0                 
-4.65211296082      3.90211296082       0.0                 
-4.62764120102      -3.90211296082      -0.00464247865602   
-4.62764120102      -3.90211296082      0.00464247865602    
-4.62764120102      3.90211296082       -0.00464247865602   
-4.62764120102      3.90211296082       0.00464247865602    
-4.55662155151      -3.90211296082      -0.0139143215492    
-4.55662155151      -3.90211296082      0.0139143215492     
-4.55662155151      3.90211296082       -0.0139143215492    
-4.55662155151      3.90211296082       0.0139143215492     
-4.54389286041      -4.02558851242      -0.00831415317953   
-4.54389286041      -4.02558851242      0.00831415317953    
-4.54389286041      -4.01581430435      -0.0217667371035    
-4.54389286041      -4.01581430435      0.0217667371035     
-4.54389286041      -4.0                -0.0269051659852    
-4.54389286041      -4.0                0.0269051659852     
-4.54389286041      4.0                 -0.0269051659852    
-4.54389286041      4.0                 0.0269051659852     
-4.54389286041      4.01581430435       -0.0217667371035    
-4.54389286041      4.01581430435       0.0217667371035     
-4.54389286041      4.02558851242       -0.00831415317953   
-4.54389286041      4.02558851242       0.00831415317953    
-4.44600582123      -3.90211296082      -0.0269051659852    
-4.44600582123      -3.90211296082      0.0269051659852     
-4.44600582123      3.90211296082       -0.0269051659852    
-4.44600582123      3.90211296082       0.0269051659852     
-4.4045085907       -4.03891468048      -0.0126441745088    
-4.4045085907       -4.03891468048      0.0126441745088     
-4.4045085907       -4.02405071259      -0.0331028774381    
-4.4045085907       -4.02405071259      0.0331028774381     
-4.4045085907       -4.0                -0.0409174077213    
-4.4045085907       -4.0                0.0409174077213     
-4.4045085907       4.0                 -0.0409174077213    
-4.4045085907       4.0                 0.0409174077213     
-4.4045085907       4.02405071259       -0.0331028774381    
-4.4045085907       4.02405071259       0.0331028774381     
-4.4045085907       4.03891468048       -0.0126441745088    
-4.4045085907       4.03891468048       0.0126441745088     
-4.36803388596      -3.61803388596      0.0                 
-4.36803388596      3.61803388596       0.0                 
-4.34356212616      -3.61803388596      -0.00464247865602   
-4.34356212616      -3.61803388596      0.00464247865602    
-4.34356212616      3.61803388596       -0.00464247865602   
-4.34356212616      3.61803388596       0.00464247865602    
-4.30662155151      -3.90211296082      -0.0409174077213    
-4.30662155151      -3.90211296082      0.0409174077213     
-4.30662155151      3.90211296082       -0.0409174077213    
-4.30662155151      3.90211296082       0.0409174077213     
-4.27254247665      -3.61803388596      -0.0139143215492    
-4.27254247665      -3.61803388596      0.0139143215492     
-4.27254247665      3.61803388596       -0.0139143215492    
-4.27254247665      3.61803388596       0.0139143215492     
-4.25               -4.05034923553      -0.0163594372571    
-4.25               -4.05034923553      0.0163594372571     
-4.25               -4.03111743927      -0.0428295619786    
-4.25               -4.03111743927      0.0428295619786     
-4.25               -4.0                -0.0529402531683    
-4.25               -4.0                0.0529402531683     
-4.25               4.0                 -0.0529402531683    
-4.25               4.0                 0.0529402531683     
-4.25               4.03111743927       -0.0428295619786    
-4.25               4.03111743927       0.0428295619786     
-4.25               4.05034923553       -0.0163594372571    
-4.25               4.05034923553       0.0163594372571     
-4.16192674637      -3.61803388596      -0.0269051659852    
-4.16192674637      -3.61803388596      0.0269051659852     
-4.16192674637      3.61803388596       -0.0269051659852    
-4.16192674637      3.61803388596       0.0269051659852     
-4.15211296082      -3.90211296082      -0.0529402531683    
-4.15211296082      -3.90211296082      0.0529402531683     
-4.15211296082      3.90211296082       -0.0529402531683    
-4.15211296082      3.90211296082       0.0529402531683     
-4.0954914093       -4.05665874481      -0.0184096004814    
-4.0954914093       -4.05665874481      0.0184096004814     
-4.0954914093       -4.03501701355      -0.0481969565153    
-4.0954914093       -4.03501701355      0.0481969565153     
-4.0954914093       -4.0                -0.0595747157931    
-4.0954914093       -4.0                0.0595747157931     
-4.0954914093       4.0                 -0.0595747157931    
-4.0954914093       4.0                 0.0595747157931     
-4.0954914093       4.03501701355       -0.0481969565153    
-4.0954914093       4.03501701355       0.0481969565153     
-4.0954914093       4.05665874481       -0.0184096004814    
-4.0954914093       4.05665874481       0.0184096004814     
-4.02254247665      -3.61803388596      -0.0409174077213    
-4.02254247665      -3.61803388596      0.0409174077213     
-4.02254247665      3.61803388596       -0.0409174077213    
-4.02254247665      3.61803388596       0.0409174077213     
-3.99760460854      -3.90211296082      -0.0595747157931    
-3.99760460854      -3.90211296082      0.0595747157931     
-3.99760460854      3.90211296082       -0.0595747157931    
-3.99760460854      3.90211296082       0.0595747157931     
-3.95610737801      -4.05488920212      -0.0178346466273    
-3.95610737801      -4.05488920212      0.0178346466273     
-3.95610737801      -4.03392362595      -0.046691711992     
-3.95610737801      -4.03392362595      0.046691711992      
-3.95610737801      -4.0                -0.0577141307294    
-3.95610737801      -4.0                0.0577141307294     
-3.95610737801      4.0                 -0.0577141307294    
-3.95610737801      4.0                 0.0577141307294     
-3.95610737801      4.03392362595       -0.046691711992     
-3.95610737801      4.03392362595       0.046691711992      
-3.95610737801      4.05488920212       -0.0178346466273    
-3.95610737801      4.05488920212       0.0178346466273     
-3.92557048798      -3.17557048798      0.0                 
-3.92557048798      3.17557048798       0.0                 
-3.90109872818      -3.17557048798      -0.00464247865602   
-3.90109872818      -3.17557048798      0.00464247865602    
-3.90109872818      3.17557048798       -0.00464247865602   
-3.90109872818      3.17557048798       0.00464247865602    
-3.86803388596      -3.61803388596      -0.0529402531683    
-3.86803388596      -3.61803388596      0.0529402531683     
-3.86803388596      3.61803388596       -0.0529402531683    
-3.86803388596      3.61803388596       0.0529402531683     
-3.85822033882      -3.90211296082      -0.0577141307294    
-3.85822033882      -3.90211296082      0.0577141307294     
-3.85822033882      3.90211296082       -0.0577141307294    
-3.85822033882      3.90211296082       0.0577141307294     
-3.8454914093       -4.0437951088       -0.0142299029976    
-3.8454914093       -4.0437951088       0.0142299029976     
-3.8454914093       -4.02706670761      -0.037254370749     
-3.8454914093       -4.02706670761      0.037254370749      
-3.8454914093       -4.0                -0.0460489317775    
-3.8454914093       -4.0                0.0460489317775     
-3.8454914093       4.0                 -0.0460489317775    
-3.8454914093       4.0                 0.0460489317775     
-3.8454914093       4.02706670761       -0.037254370749     
-3.8454914093       4.02706670761       0.037254370749      
-3.8454914093       4.0437951088        -0.0142299029976    
-3.8454914093       4.0437951088        0.0142299029976     
-3.83007907867      -3.17557048798      -0.0139143215492    
-3.83007907867      -3.17557048798      0.0139143215492     
-3.83007907867      3.17557048798       -0.0139143215492    
-3.83007907867      3.17557048798       0.0139143215492     
-3.7744717598       -4.0246257782       -0.00800147373229   
[...]
CELL_DATA 980
SCALARS pressure_coefficient float 1
LOOKUP_TABLE default
-54.5260762899      
-40.1310760077      
-4.10516924032      
-2.40098184247      
-0.063747207164     
0.57912989088       
0.83247797925       
0.972529715606      
0.996140582528      
0.978454768122      
0.937080628175      
0.883472458972      
0.704500660125      
0.628856873596      
0.0509143815619     
-0.00919135315668   
-2.03422470765      
-1.86114108624      
-10.5116801232      
-8.42211738975      
-11.4278298072      
-7.36207597404      
-2.21204949761      
-1.32609733805      
-0.00944645816194   
0.151681712421      
0.684608241752      
0.705440171667      
0.937413931505      
0.947474788851      
0.999972862868      
0.999349945436      
0.900115128334      
0.874889422053      
0.24340911002       
-0.0560405097494    
-3.95748354737      
-7.55815324463      
-40.8453782866      
-101.19687774       
-39.2779066706      
-31.7572950819      
-3.99768871247      
-3.96047370643      
-0.482053202625     
-0.370819118358     
0.597151801947      
0.754693993743      
0.948721731771      
0.994916149916      
0.977687027891      
0.916895737558      
0.700068982441      
0.558914231609      
-0.217777924051     
-0.405233544176     
-3.24123662905      
-3.44080364539      
-15.0766647842      
-13.630938267       
-16.2896300707      
-11.9204454463      
-3.77923538935      
-2.52935093312      
-0.375964093855     
-0.118692150877     
0.622579695817      
0.663521247996      
0.958323145899      
0.954572488817      
0.969055984822      
0.972427616511      
0.649875911142      
0.605048027776      
-0.350460061333     
-0.632810905645     
-3.33268303369      
-4.94072530605      
-27.8473698722      
-47.4599354464      
-35.5047776706      
-25.542658501       
-3.69635890835      
-3.18705538033      
-0.552566177074     
-0.492789640133     
0.511288390504      
0.575974556685      
0.906834229909      
0.949331718127      
0.995230583825      
0.968056848312      
0.745949587987      
0.609592828251      
-0.243081058889     
-0.534338618665     
-3.52479354329      
-4.29058726536      
-16.2998921074      
-17.2302730394      
-17.4897492022      
-15.211000882       
-4.00877405351      
-3.13223505228      
-0.329963200863     
-0.127144165869     
0.692700996051      
0.756679437678      
0.981724715229      
0.994081638301      
0.947756752624      
0.915217723447      
0.632155241155      
0.536364432129      
-0.27115163516      
-0.507583254364     
-2.90489371776      
-4.00483291745      
-24.8809922182      
-38.5620908694      
-34.8153791393      
-24.2462723365      
-3.57759266672      
-2.88226206499      
-0.494891846254     
-0.36579491335      
0.523617066161      
0.590936651691      
0.904994214582      
0.938164623008      
0.996715684919      
0.982734225364      
0.758314577034      
0.668026256107      
-0.196401569736     
-0.450599403486     
-3.40706729903      
-4.2768394978       
-15.976460835       
-17.7003701757      
-17.2049119077      
-15.8270058449      
-3.9051671393       
-3.19378727407      
-0.28074224664      
-0.0947494626831    
0.722181363377      
0.784690678139      
0.987748778206      
0.997788175876      
0.939568156303      
0.905238383143      
0.615383766252      
0.532769274983      
-0.297583945405     
-0.496470726427     
-2.82164889836      
-3.70465378427      
-23.868793501       
-35.5939750238      
-35.5566768135      
-24.1645383313      
-3.59304653823      
-2.79474857603      
-0.433859978062     
-0.303580323329     
0.540019700395      
0.60502562974       
0.909135075515      
0.939055190092      
0.996629051334      
0.984663289332      
0.767480184744      
0.684829447861      
-0.146109732774     
-0.397895310703     
-3.2667770782       
-4.14797749365      
-15.5582913405      
-17.4197614048      
-16.9140827206      
-15.7355910052      
-3.84571805003      
-3.18707734417      
-0.267704267011     
-0.0971886364227    
0.732665730898      
0.783071891746      
0.991084330258      
0.997495593316      
0.930094509899      
0.907660670595      
0.590238182483      
0.538607896263      
-0.365356483939     
-0.497757889875     
-2.81975816434      
-3.56639666331      
-23.0346451825      
-34.1952137604      
-35.7783662163      
-23.8618388633      
-3.62451628141      
-2.83317576183      
-0.428570867818     
-0.355795117332     
0.535577692257      
0.580032662609      
0.905689475443      
0.929844298949      
0.997595526693      
0.988581903089      
0.782440760802      
0.703222586393      
-0.0978626565099    
-0.353613992261     
-3.14932913133      
-4.03307272595      
-15.2379817707      
-17.1163890025      
-16.7130104307      
-15.5145486099      
-3.82113029782      
-3.15394819774      
-0.271484511322     
-0.0960041283301    
0.730876755913      
0.778885936914      
0.991246162745      
0.996480296312      
0.92895408          
0.916207151367      
0.588627809043      
0.563909885159      
-0.373050124429     
-0.436960488462     
-2.77731174457      
-3.4937590747       
-22.5448429095      
-34.2265316932      
-33.4636696136      
-22.7166441933      
-3.46486039769      
-2.83740065934      
-0.461253204549     
-0.446891594373     
0.520122227337      
0.546639627949      
0.897374187182      
0.919082242401      
0.998764043572      
0.99172231473       
0.794736216593      
0.71760050644       
-0.0733150653113    
-0.322366517772     
-3.09536306209      
-3.94207501295      
-15.0736467064      
-16.8258431316      
-16.5216111084      
-15.1971859219      
-3.7790334522       
-3.07680153088      
-0.266224499069     
-0.0754185290267    
0.726642911191      
0.7808704212        
0.989117979812      
0.995743462441      
0.937500163274      
0.92449713191       
0.623868886111      
0.597248564899      
-0.259639616807     
-0.331694318823     
-2.58006344909      
-3.41812030447      
-22.0439378122      
-34.7598802815      
-25.9863354468      
-19.7442870461      
-2.67894615565      
-2.49914245521      
-0.375366170311     
-0.41441105114      
0.542863112295      
0.563000022568      
0.89330414665       
0.92188415555       
0.999094194763      
0.991348653693      
0.815623290928      
0.722833741888      
-0.0252202636367    
-0.297892741267     
-2.97774089962      
-3.84688474482      
-14.5828103794      
-16.4551059377      
-15.8346722519      
-14.8175042962      
-3.54449063354      
-2.96641351975      
-0.183899294875     
-0.0394468679219    
0.74751599269       
0.791722916828      
0.988860250627      
0.996131589374      
0.945360715104      
0.92539895566       
0.688264680825      
0.621474164261      
-0.0101783545251    
-0.214577523979     
-2.01190695449      
-3.1760205684       
-19.4646754296      
-33.4474498624      
-13.8824748404      
-13.5785028797      
-1.0500383332       
-1.37410162281      
0.175160891386      
0.0258349411501     
0.736404244224      
0.707830401804      
0.927869795316      
0.943619017183      
0.974004068101      
0.977282036182      
0.830621651541      
0.735239202674      
0.147705489296      
-0.206368570693     
-2.54059798439      
-3.55643694108      
-13.1040792189      
-15.440642797       
-13.93507377        
-13.9115610589      
-2.8902692219       
-2.70252564099      
0.035104286096      
0.046641015992      
0.802014327648      
0.809635353341      
0.969653767476      
0.985318094748      
0.935973203333      
0.921544677803      
0.785084829292      
0.670440566014      
0.37095219015       
-0.00261038789839   
-0.883083521227     
-2.32561339596      
-11.9917946122      
-25.6261524763      
-3.94838070045      
-6.33832752781      
0.343281175627      
-0.0332200426256    
0.707195330536      
0.646448891215      
0.725383364829      
0.807798723102      
0.667099187157      
0.825100625028      
0.59346917748       
0.782526280568      
0.454153940295      
0.601032280227      
0.0436495746686     
-0.0692631215809    
-1.92725496848      
-2.9143536972       
-10.4832211975      
-13.0858061868      
-11.539165477       
-12.1467188709      
-2.15013061695      
-2.20229814045      
-0.0129538026915    
0.0401331839187     
0.467873873779      
0.582501257759      
0.604802810774      
0.747462042526      
0.650226327788      
0.792589430193      
0.671050695989      
0.760319226379      
0.634538239315      
0.501102775672      
0.177352141277      
-0.879317719377     
-3.83699017132      
-12.2248709163      
-10.7773662555      
-7.06787054122      
-4.02815455089      
-4.92700144569      
-3.12641900039      
-3.89970961798      
-2.73827166305      
-3.27449234212      
-2.45241969504      
-2.89456749472      
-2.25533922022      
-2.68595656755      
-2.15521728267      
-2.67739573704      
-2.16284003694      
-3.16419390276      
-2.96155088601      
-7.61237610249      
-24.4321002295      
-17.5646364813      
-13.546942492       
-11.5032151977      
-9.91434943767      
-9.23056606181      
-8.22402563077      
-8.04006982161      
-7.26007973704      
-7.3133225722       
-6.77014547765      
-7.01340183929      
-6.77979520714      
-7.26553783641      
-7.55897457842      
-8.52429396072      
-10.2244576687      
-12.2989156035      
-33.3693832087      
-21.7525767411      
-15.6235356003      
-13.6801153098      
-11.9338385491      
-10.9325251329      
-10.1132110677      
-9.54690389126      
-9.03773504105      
-8.72755038744      
-8.47193067778      
-8.39499298091      
-8.45245332052      
-8.66842944465      
-9.25109450217      
-9.94671053002      
-11.5784215252      
-14.5014768531      
-30.1572383089      
-21.2362208618      
-13.0814899033      
-11.8392321493      
-9.96260336844      
-9.00964759388      
-8.40821723641      
-7.67279353487      
-7.4900999082       
-6.93247666006      
-7.01811670006      
-6.66061145803      
-7.0169083915       
-6.94032772237      
-7.677638548        
-8.10884241877      
-9.20705031788      
-12.4741981982      
-9.98490148528      
-13.7160437091      
-5.15280521712      
-5.40928938768      
-3.72756416778      
-3.48535130128      
-3.15921335104      
-2.76195097851      
-2.83306162152      
-2.36629940872      
-2.63009425947      
-2.18913731315      
-2.58243808113      
-2.26994861579      
-2.78944445244      
-2.94538065143      
-3.85238832727      
-7.85888553895      
-54.5262182235      
-40.1311196045      
-4.10516977211      
-2.40099047227      
-0.0637444364962    
0.579130535354      
0.83247875169       
0.97252958311       
0.996140252443      
0.978454438761      
0.93708043194       
0.8834727703        
0.704500552099      
0.628857819032      
0.0509126477009     
-0.00918966172689   
-2.03422453951      
-1.86113549814      
-10.5116702773      
-8.42211206596      
-11.4278379028      
-7.36208474588      
-2.21205473021      
-1.3261040128       
-0.00944611746428   
0.151679888245      
0.684607811244      
0.705438686326      
0.937413913068      
0.947474151022      
0.999972851743      
0.999350010692      
0.900114527202      
0.874890058066      
0.243409081893      
-0.0560355308404    
-3.95748251906      
-7.55811302602      
-40.8453090211      
-101.196454591      
-39.2779284409      
-31.7573347266      
-3.99770060046      
-3.96049650794      
-0.482057523589     
-0.37083145456      
0.597150079529      
0.754690816873      
0.948721292145      
0.994915884899      
0.977687160474      
0.91689640835       
0.700069284827      
0.558915659593      
-0.217775464342     
-0.405231266832     
-3.24122677196      
-3.44079937915      
-15.0766342717      
-13.6309197308      
-16.2896491513      
-11.9204361559      
-3.77924372005      
-2.52934797471      
-0.375966960242     
-0.118691421445     
0.622579689516      
0.663521517513      
0.958323179945      
0.954572629957      
0.9690561606        
0.972427806232      
0.649876953878      
0.605049631909      
-0.350457787        
-0.632805887735     
-3.33268540169      
-4.94073298926      
-27.8473043583      
-47.4599876002      
-35.5047594524      
-25.5426452418      
-3.69636996586      
-3.18707361309      
-0.552570553477     
-0.492801660648     
0.511287262471      
0.575971130314      
0.906833810102      
0.949330948497      
0.995230699066      
0.968057398968      
0.745950896842      
0.609594428664      
-0.243076303527     
-0.534336022182     
-3.52478501082      
-4.29058152163      
-16.2998949432      
-17.2302489878      
-17.4897384948      
-15.2109719131      
-4.00878640349      
-3.13223022418      
-0.329968106389     
-0.127142443069     
0.692699468516      
0.756679592345      
0.981724487787      
0.994081573284      
0.947757066735      
0.915218184209      
0.632155842252      
0.536366189992      
-0.271149338172     
-0.507577286819     
-2.90490077414      
-4.00483442031      
-24.8810062605      
-38.5621628758      
-34.8153287834      
-24.2462168336      
-3.57759663676      
-2.88227316379      
-0.494894628269     
-0.365804391502     
0.523615991045      
0.590933970813      
0.904993854959      
0.938163879948      
0.996715765365      
0.982734547545      
0.758315232207      
0.66802737255       
-0.19640003193      
-0.4505970263       
-3.40706448155      
-4.27683247833      
-15.9764291722      
-17.7003263145      
-17.2049561869      
-15.8269913664      
-3.90517155842      
-3.19378042067      
-0.280743645198     
-0.0947472580357    
0.722180363758      
0.784690980441      
0.987748567616      
0.997788153466      
0.939568550342      
0.905238801297      
0.61538459729       
0.532770728873      
-0.297578890756     
-0.496463894772     
-2.82164824786      
-3.7046591556       
-23.8689433625      
-35.5941096555      
-35.5566502683      
-24.1644862203      
-3.59305139365      
-2.79475644352      
-0.433861384249     
-0.30358197914      
0.540020011115      
0.60502458019       
0.909135177505      
0.939054947809      
0.996629061053      
0.98466342745       
0.767480310589      
0.684829917175      
-0.146109869642     
-0.397894547094     
-3.26677626068      
-4.14797390247      
-15.5582908563      
-17.4197532964      
-16.9140830781      
-15.7355892844      
-3.84570845416      
-3.18707197218      
-0.267703903427     
-0.0971885751789    
0.732665750078      
0.783071714253      
0.991084358023      
0.997495553417      
0.930094415857      
0.907660986591      
0.590237791209      
0.538608382991      
-0.365360958902     
-0.497756471615     
-2.81975533475      
-3.5663959561       
-23.0346297103      
-34.1952326521      
-35.7783662978      
-23.8617806572      
-3.62452491258      
-2.833182127        
-0.428567453234     
-0.355797431903     
0.535578442975      
0.580031637748      
0.905689680108      
0.929844032007      
0.997595531289      
0.988582020166      
0.782441218347      
0.703223099084      
-0.0978608760373    
-0.3536137069       
-3.14933191035      
-4.03307316767      
-15.2379715682      
-17.116405915       
-16.7129894739      
-15.5145432434      
-3.8211231473       
-3.15394795365      
-0.271483982456     
-0.096004315092     
0.730876782232      
0.778885530166      
0.991246214434      
0.996480231031      
0.928953480081      
0.916207517886      
0.588626781187      
0.563911285822      
-0.373057135348     
-0.436959533586     
-2.77732712678      
-3.4937560375       
-22.5447786304      
-34.2265603624      
-33.4634853879      
-22.7165661594      
-3.46486223407      
-2.83739464961      
-0.46125542042      
-0.44690329015      
0.52012152824       
0.54663699773       
0.897374118942      
0.91908186561       
0.998764048941      
0.99172242624       
0.794736116118      
0.717600803336      
-0.0733169570046    
-0.32236721752      
-3.09536459695      
-3.9420896028       
-15.0738370936      
-16.8260447847      
-16.5217409489      
-15.1972765128      
-3.77904099291      
-3.07679000056      
-0.266223675274     
-0.0754170380289    
0.72664267094       
0.780870439705      
0.989117866749      
0.995743404109      
0.937500338782      
0.924497514555      
0.623868998503      
0.597250318231      
-0.259635839556     
-0.331690110014     
-2.58007440158      
-3.41813481118      
-22.0442335486      
-34.760078011       
-25.986537616       
-19.7443907647      
-2.67895223925      
-2.49914819996      
-0.3753613295       
-0.41441344795      
0.542864767654      
0.563001021847      
0.893304247802      
0.921884352485      
0.999094200149      
0.991348613642      
0.81562358031       
0.722833878713      
-0.0252201726534    
-0.297892849581     
-2.97774331801      
-3.84689306528      
-14.5827400296      
-16.4550122131      
-15.8347325904      
-14.817559314       
-3.54447907346      
-2.96641594954      
-0.18389758453      
-0.03944647675      
0.74751630566       
0.791722900772      
0.988860381304      
0.996131587283      
0.945360279036      
0.925398941045      
0.688263295138      
0.621473744318      
-0.0101806074546    
-0.21457657933      
-2.01190737028      
-3.17602064208      
-19.4645975298      
-33.4473355291      
-13.8826346402      
-13.578658257       
-1.05007495172      
-1.37414791925      
0.175154700606      
0.0258320997668     
0.736405719249      
0.707830778972      
0.927870058096      
0.943618748506      
0.974004311426      
0.977282109286      
0.830622147566      
0.735239342492      
0.147706531376      
-0.206368189747     
-2.54059666937      
-3.55643245689      
-13.1040145339      
-15.4405459499      
-13.9351651027      
-13.9116370312      
-2.89027930489      
-2.70253294955      
0.035100079039      
0.0466410318965     
0.802014054083      
0.809635717366      
0.969653979017      
0.985318188259      
0.935972285587      
0.921544286295      
0.785081821765      
0.670439876987      
0.370943713247      
-0.00261160833653   
-0.883093798829     
-2.32560210456      
-11.9917075721      
-25.626055528       
-3.94853550892      
-6.33851644218      
0.343267149523      
-0.0332493883682    
0.707192898976      
0.646445456391      
0.725385226235      
0.807798683471      
0.667098921342      
0.825100434187      
0.59347031045       
0.782527207196      
0.454157710913      
0.601033140837      
0.0436510955579     
-0.0692615370052    
-1.92724661452      
-2.91434202257      
-10.4832077281      
-13.0858003371      
-11.5392311958      
-12.1467401809      
-2.15013980367      
-2.20230592482      
-0.0129586677104    
0.0401348955385     
0.467876645517      
0.582504646353      
0.604804884874      
0.747463121683      
0.65023287339       
0.792593469671      
0.67105731627       
0.760323466719      
0.634539202422      
0.50110370941       
0.177354275196      
-0.879305348267     
-3.83691653543      
-12.2249304797      
-10.7764429723      
-7.06578092354      
-4.0281396705       
-4.92743271382      
-3.12637923749      
-3.89959718077      
-2.73824802924      
-3.27448083576      
-2.45243431803      
-2.89453057671      
-2.25531819256      
-2.68592711677      
-2.15519133356      
-2.67741222619      
-2.1628139348       
-3.16422765214      
-2.96155058193      
-7.61255577565      
-24.4339953712      
-17.558327551       
-13.547104774       
-11.5037575846      
-9.91460523136      
-9.23027443083      
-8.22401558416      
-8.03991871439      
-7.26007230852      
-7.31329395435      
-6.77018120334      
-7.01340216768      
-6.77982647101      
-7.26543844806      
-7.55898263348      
-8.52433833045      
-10.224241006       
-12.2990011287      
-33.3714969281      
-21.7541653718      
-15.6236992388      
-13.68073786        
-11.934224822       
-10.9328234275      
-10.1133462359      
-9.5470594341       
-9.03774878869      
-8.72763988261      
-8.47195202408      
-8.39502144847      
-8.45253949182      
-8.66850557706      
-9.25119189335      
-9.94694875918      
-11.5785271264      
-14.5019392191      
-30.1564426061      
-21.232267114       
-13.0819306036      
-11.839336332       