# vtk DataFile Version 3.0
PyPan results file. Generated by PyPan, USU AeroLab (c) 2020.
ASCII
DATASET POLYDATA
POINTS 492 float
-0.75               0.0                 0.0                 
-0.823415219784     -0.0978869646788    -0.00464247865602   
-0.84788697958      -0.0978869646788    0.0                 
-0.725528240204     0.0                 -0.00464247865602   
-0.752395451069     -0.0978869646788    -0.0139143215492    
-0.654508471489     0.0                 -0.0139143215492    
-0.641779601574     -0.0978869646788    -0.0269051659852    
-0.543892621994     0.0                 -0.0269051659852    
-0.502395451069     -0.0978869646788    -0.0409174077213    
-0.404508501291     0.0                 -0.0409174077213    
-0.34788697958      -0.0978869646788    -0.0529402531683    
-0.25               0.0                 -0.0529402531683    
-0.193378463387     -0.0978869646788    -0.0595747157931    
-0.0954915061593    0.0                 -0.0595747157931    
-0.0539943426847    -0.0978869646788    -0.0577141307294    
0.0438926257193     0.0                 -0.0577141307294    
0.0566215291619     -0.0978869646788    -0.0460489317775    
0.154508501291      0.0                 -0.0460489317775    
0.127641290426      -0.0978869646788    -0.0258933138102    
0.225528255105      0.0                 -0.0258933138102    
0.152113035321      -0.0978869646788    0.0                 
0.25                0.0                 0.0                 
0.127641290426      -0.0978869646788    0.0258933138102     
0.225528255105      0.0                 0.0258933138102     
0.0566215291619     -0.0978869646788    0.0460489317775     
0.154508501291      0.0                 0.0460489317775     
-0.0539943426847    -0.0978869646788    0.0577141307294     
0.0438926257193     0.0                 0.0577141307294     
-0.193378463387     -0.0978869646788    0.0595747157931     
-0.0954915061593    0.0                 0.0595747157931     
-0.34788697958      -0.0978869646788    0.0529402531683     
-0.25               0.0                 0.0529402531683     
-0.502395451069     -0.0978869646788    0.0409174077213     
-0.404508501291     0.0                 0.0409174077213     
-0.641779601574     -0.0978869646788    0.0269051659852     
-0.543892621994     0.0                 0.0269051659852     
-0.752395451069     -0.0978869646788    0.0139143215492     
-0.654508471489     0.0                 0.0139143215492     
-0.823415219784     -0.0978869646788    0.00464247865602    
-0.725528240204     0.0                 0.00464247865602    
-1.10749423504      -0.381966024637     -0.00464247865602   
-1.13196599483      -0.381966024637     0.0                 
-1.03647446632      -0.381966024637     -0.0139143215492    
-0.925858616829     -0.381966024637     -0.0269051659852    
-0.786474525928     -0.381966024637     -0.0409174077213    
-0.631965994835     -0.381966024637     -0.0529402531683    
-0.477457523346     -0.381966024637     -0.0595747157931    
-0.338073372841     -0.381966024637     -0.0577141307294    
-0.227457508445     -0.381966024637     -0.0460489317775    
-0.156437754631     -0.381966024637     -0.0258933138102    
-0.131966009736     -0.381966024637     0.0                 
-0.156437754631     -0.381966024637     0.0258933138102     
-0.227457508445     -0.381966024637     0.0460489317775     
-0.338073372841     -0.381966024637     0.0577141307294     
-0.477457523346     -0.381966024637     0.0595747157931     
-0.631965994835     -0.381966024637     0.0529402531683     
-0.786474525928     -0.381966024637     0.0409174077213     
-0.925858616829     -0.381966024637     0.0269051659852     
-1.03647446632      -0.381966024637     0.0139143215492     
-1.10749423504      -0.381966024637     0.00464247865602    
-1.54995775223      -0.824429512024     -0.00464247865602   
-1.57442951202      -0.824429512024     0.0                 
-1.47893798351      -0.824429512024     -0.0139143215492    
-1.36832213402      -0.824429512024     -0.0269051659852    
-1.22893798351      -0.824429512024     -0.0409174077213    
-1.07442951202      -0.824429512024     -0.0529402531683    
-0.91992098093      -0.824429512024     -0.0595747157931    
-0.78053689003      -0.824429512024     -0.0577141307294    
-0.66992098093      -0.824429512024     -0.0460489317775    
-0.598901212215     -0.824429512024     -0.0258933138102    
-0.574429512024     -0.824429512024     0.0                 
-0.598901212215     -0.824429512024     0.0258933138102     
-0.66992098093      -0.824429512024     0.0460489317775     
-0.78053689003      -0.824429512024     0.0577141307294     
-0.91992098093      -0.824429512024     0.0595747157931     
-1.07442951202      -0.824429512024     0.0529402531683     
-1.22893798351      -0.824429512024     0.0409174077213     
-1.36832213402      -0.824429512024     0.0269051659852     
-1.47893798351      -0.824429512024     0.0139143215492     
-1.54995775223      -0.824429512024     0.00464247865602    
-2.10749435425      -1.38196599483      -0.00464247865602   
-2.13196611404      -1.38196599483      0.0                 
-2.03647446632      -1.38196599483      -0.0139143215492    
-1.92585861683      -1.38196599483      -0.0269051659852    
-1.78647446632      -1.38196599483      -0.0409174077213    
-1.63196599483      -1.38196599483      -0.0529402531683    
-1.47745752335      -1.38196599483      -0.0595747157931    
-1.33807337284      -1.38196599483      -0.0577141307294    
-1.22745752335      -1.38196599483      -0.0460489317775    
-1.15643775463      -1.38196599483      -0.0258933138102    
-1.13196599483      -1.38196599483      0.0                 
-1.15643775463      -1.38196599483      0.0258933138102     
-1.22745752335      -1.38196599483      0.0460489317775     
-1.33807337284      -1.38196599483      0.0577141307294     
-1.47745752335      -1.38196599483      0.0595747157931     
-1.63196599483      -1.38196599483      0.0529402531683     
-1.78647446632      -1.38196599483      0.0409174077213     
-1.92585861683      -1.38196599483      0.0269051659852     
-2.03647446632      -1.38196599483      0.0139143215492     
-2.10749435425      -1.38196599483      0.00464247865602    
-2.7255282402       -2.0                -0.00464247865602   
-2.75               -2.0                0.0                 
-2.6545085907       -2.0                -0.0139143215492    
-2.54389262199      -2.0                -0.0269051659852    
-2.4045085907       -2.0                -0.0409174077213    
-2.25               -2.0                -0.0529402531683    
-2.0954914093       -2.0                -0.0595747157931    
-1.95610737801      -2.0                -0.0577141307294    
-1.84549152851      -2.0                -0.0460489317775    
-1.7744717598       -2.0                -0.0258933138102    
-1.75               -2.0                0.0                 
-1.7744717598       -2.0                0.0258933138102     
-1.84549152851      -2.0                0.0460489317775     
-1.95610737801      -2.0                0.0577141307294     
-2.0954914093       -2.0                0.0595747157931     
-2.25               -2.0                0.0529402531683     
-2.4045085907       -2.0                0.0409174077213     
-2.54389262199      -2.0                0.0269051659852     
-2.6545085907       -2.0                0.0139143215492     
-2.7255282402       -2.0                0.00464247865602    
-3.34356236458      -2.61803388596      -0.00464247865602   
-3.36803388596      -2.61803388596      0.0                 
-3.27254247665      -2.61803388596      -0.0139143215492    
-3.16192650795      -2.61803388596      -0.0269051659852    
-3.02254247665      -2.61803388596      -0.0409174077213    
-2.86803388596      -2.61803388596      -0.0529402531683    
-2.71352553368      -2.61803388596      -0.0595747157931    
-2.57414126396      -2.61803388596      -0.0577141307294    
-2.46352553368      -2.61803388596      -0.0460489317775    
-2.39250564575      -2.61803388596      -0.0258933138102    
-2.36803388596      -2.61803388596      0.0                 
-2.39250564575      -2.61803388596      0.0258933138102     
-2.46352553368      -2.61803388596      0.0460489317775     
-2.57414126396      -2.61803388596      0.0577141307294     
-2.71352553368      -2.61803388596      0.0595747157931     
-2.86803388596      -2.61803388596      0.0529402531683     
-3.02254247665      -2.61803388596      0.0409174077213     
-3.16192650795      -2.61803388596      0.0269051659852     
-3.27254247665      -2.61803388596      0.0139143215492     
-3.34356236458      -2.61803388596      0.00464247865602    
-3.90109872818      -3.17557048798      -0.00464247865602   
-3.92557048798      -3.17557048798      0.0                 
-3.83007907867      -3.17557048798      -0.0139143215492    
-3.71946310997      -3.17557048798      -0.0269051659852    
-3.58007907867      -3.17557048798      -0.0409174077213    
-3.42557048798      -3.17557048798      -0.0529402531683    
-3.27106189728      -3.17557048798      -0.0595747157931    
-3.13167786598      -3.17557048798      -0.0577141307294    
-3.02106189728      -3.17557048798      -0.0460489317775    
-2.95004224777      -3.17557048798      -0.0258933138102    
-2.92557048798      -3.17557048798      0.0                 
-2.95004224777      -3.17557048798      0.0258933138102     
-3.02106189728      -3.17557048798      0.0460489317775     
-3.13167786598      -3.17557048798      0.0577141307294     
-3.27106189728      -3.17557048798      0.0595747157931     
-3.42557048798      -3.17557048798      0.0529402531683     
-3.58007907867      -3.17557048798      0.0409174077213     
-3.71946310997      -3.17557048798      0.0269051659852     
-3.83007907867      -3.17557048798      0.0139143215492     
-3.90109872818      -3.17557048798      0.00464247865602    
-4.34356212616      -3.61803388596      -0.00464247865602   
[...]
CELL_DATA 980
SCALARS pressure_coefficient float 1
LOOKUP_TABLE default
0.0907416496421     
0.189624516325      
0.0029592653429     
0.337196405643      
-0.100604687913     
0.12235896582       
-0.325783952539     
-0.296711321905     
-1.02084482         
-0.791190796075     
-2.42200596506      
-1.31089233908      
-4.79640367138      
-2.12767235824      
-9.61454531859      
-7.1620998477       
-25.7826107343      
-62.9967830177      
-112.031432289      
-288.371557976      
-252.268332282      
-130.941566446      
-51.7749591605      
-20.1527375934      
-6.9186356387       
-5.11377692635      
-3.80693273004      
-1.99505119729      
-2.37398000398      
-1.02077047988      
-1.21388791992      
-0.447284203759     
-0.440261408059     
-0.0864444214008    
-0.0505595882739    
0.0808359457335     
0.0906081176063     
0.150512753522      
0.0486976127937     
0.110529192556      
-2.72709258427      
-2.73702143708      
-0.154970935398     
0.00947022354249    
0.00792151908944    
0.157126838268      
-0.0213676360363    
-0.11966788121      
-0.0637015929766    
-0.757404837897     
-0.0857548084664    
-2.00051709869      
-0.203056454326     
-4.6352712957       
-1.33181617547      
-12.3426566026      
-7.99077229689      
-51.0480853583      
-69.8709331843      
-170.862829466      
-180.278338794      
-59.9280355818      
-41.7563872142      
-2.32234002065      
-4.26428956982      
-1.47723013124      
-0.962974874016     
-1.47159719968      
-0.327648888048     
-1.03288373292      
-0.0863497859583    
-0.551773104656     
0.0358167924409     
-0.166216345397     
0.0851461430661     
0.0299593960196     
-0.00378680201038   
-0.183746142264     
-2.60337029623      
-2.66421806253      
-27.7535555596      
-15.934428427       
-1.52581646911      
-0.585251674343     
-0.0298449677927    
0.021090326634      
0.0268219928135     
0.0903491188991     
0.0291260885274     
-0.0201980771098    
0.00152687919124    
-0.43362085548      
-0.122397724352     
-1.6812400713       
-0.902372353126     
-6.60589966734      
-5.51030860095      
-40.188254705       
-50.9422839446      
-137.54136576       
-136.871991345      
-49.0046693743      
-34.6930453693      
-3.71491461503      
-3.89500107617      
-0.502970227265     
-0.808541560481     
-0.231411042956     
-0.20730322407      
-0.0810693667569    
-0.0159888317906    
0.0246631662672     
0.0461460013405     
0.0477519303125     
0.0133774142873     
-0.0350145747073    
-0.496058398814     
-1.42145382838      
-15.5270009795      
-26.9960146762      
-73.6669293143      
-37.6855050353      
-3.84867675479      
-1.34489176012      
-0.145543331259     
-0.109799784989     
0.00321548015724    
0.0368460665456     
0.0320122236882     
-0.00489132393677   
0.0169751771426     
-0.277292005842     
-0.102850945235     
-1.27022158926      
-0.744105718636     
-5.41219795526      
-4.40895100875      
-34.6405586387      
-40.5389664748      
-112.823372119      
-112.002534272      
-39.2687097965      
-29.9746421588      
-3.70653686639      
-3.51325296468      
-0.60493756019      
-0.70296113791      
-0.186941063209     
-0.158839314756     
-0.024096570507     
-0.00340108574905   
0.0345040004553     
0.0265740129168     
0.00854130393054    
-0.0875567968422    
-0.140328632314     
-1.21040984433      
-3.4904599463       
-37.1609615509      
-72.0448501274      
-148.478630429      
-71.7693771547      
-7.53859902491      
-2.41812840574      
-0.337430447267     
-0.268011513166     
-0.0422090242135    
-0.00370638188418   
0.018983995059      
-0.00675599375719   
0.0188233701214     
-0.215463932529     
-0.0698891684417    
-1.02299332693      
-0.581982599761     
-4.50620665668      
-3.56311844972      
-29.540107296       
-33.0459247154      
-93.8482750526      
-93.0184999376      
-32.0581198751      
-25.5397745576      
-3.26129970411      
-3.05259080854      
-0.570381090743     
-0.602118160369     
-0.163209782036     
-0.125841871703     
-0.0184537919665    
0.000427217094119   
0.0184218780485     
-0.0037955317284    
-0.0370508750926    
-0.224918568465     
-0.280410615359     
-2.25049420373      
-6.78257492077      
-71.3072480348      
-145.754954533      
-317.611747182      
-146.937135832      
-15.8795025175      
-4.6358054027       
-0.796651115405     
-0.570038393729     
-0.148166509204     
-0.069669919672     
-0.0123552830428    
-0.00136236493065   
0.0125610962911     
-0.13242539785      
-0.0298984187197    
-0.731274558354     
-0.374339202649     
-3.40618859858      
-2.51243093199      
-22.5793520654      
-23.8094279684      
-69.7622650378      
-68.9356707634      
-23.0962876809      
-19.4309925781      
-2.39444878649      
-2.36156189701      
-0.43521667163      
-0.451550581235     
-0.116919194387     
-0.0794402427494    
-0.00934942440242   
0.000755305344246   
-0.00710126397538   
-0.0638043213074    
-0.113467442579     
-0.490018360631     
-0.563225553987     
-4.41232097242      
-14.0811638117      
-147.036726557      
-312.829889611      
-655.303573082      
-294.32879498       
-33.1360555075      
-8.774761302        
-1.89923042988      
-1.10841051164      
-0.401123149291     
-0.187921111268     
-0.077648775029     
-0.00111661784282   
-0.00307374890409   
-0.0328198146627    
-0.00409845905299   
-0.396127583937     
-0.155891127285     
-2.15104305582      
-1.36730587059      
-14.5155230135      
-13.669850829       
-42.6925093406      
-41.936647203       
-13.2257832318      
-12.3399697346      
-1.35679844359      
-1.517477557        
-0.254188323296     
-0.259331959916     
-0.055000530837     
-0.0184355497846    
0.000679768251669   
-0.00861375868438   
-0.048367489391     
-0.173471757072     
-0.237732426308     
-0.939295828996     
-1.08187192975      
-8.35259537194      
-28.3973645867      
-295.991593396      
-647.033064111      
-1155.34801137      
-510.147469484      
-63.099931787       
-14.5157097325      
-4.68631130887      
-1.81893952901      
-1.12941815971      
-0.364595205647     
-0.293396299306     
-0.0408639152906    
-0.0451374496663    
0.0387387956607     
0.000104809730343   
-0.117971573958     
-0.0234304800049    
-1.12224408584      
-0.499212522934     
-8.07924069201      
-6.09859815061      
-21.871722478       
-21.1543351119      
-5.90523791239      
-6.68700051468      
-0.584635510919     
-0.821647503303     
-0.110647100235     
-0.0771295713113    
-0.00244957350056   
0.022161872459      
-0.00627029265433   
-0.099752926387     
-0.129456303719     
-0.403147234166     
-0.449428086229     
-1.46846110031      
-1.89678203749      
-13.0280357405      
-49.4493835353      
-512.57753626       
-1143.56019926      
-1738.31644034      
-776.008186964      
-148.887953722      
-20.7805402297      
-23.3469410669      
-2.70743309846      
-8.49817839526      
-0.785413685118     
-3.66494459928      
-0.306627659544     
-1.32742605918      
-0.0409120392231    
-0.156939955336     
0.045860770346      
-0.0424607679928    
-0.468799484833     
-0.0604594896605    
-4.19738657382      
-1.55403660842      
-9.89559843397      
-8.53493525849      
-1.92441185463      
-3.67807524906      
-0.186797106936     
-0.56038675556      
-0.0306474067597    
0.0251932963171     
0.0148269942344     
-0.770254735391     
-0.133226943844     
-2.25952931336      
-0.513279221032     
-4.3102208214       
-1.27576102618      
-7.23168888672      
-4.06836429233      
-16.5553253658      
-79.4806658906      
-739.926382003      
-1770.15677908      
-11597.2670275      
-825.15324364       
-4261.42678566      
-35.6951909118      
-513.99512936       
-10.1073775103      
-105.39912458       
-3.55014998017      
-27.8495550521      
-1.36502716365      
-8.29734242027      
-0.308169287571     
-2.36179700316      
0.134830670405      
-0.179507548475     
-0.066563311989     
-2.30287223464      
-2.81013923586      
-3.51295139537      
-4.43437920602      
-3.04923012285      
-0.131653502079     
-5.22773626143      
-0.204934212083     
0.0602548803433     
0.0379777071846     
-1.0826550385       
-0.0187506925603    
-6.23239770585      
-0.475221060004     
-26.9330702181      
-1.58105566209      
-129.43618919       
-5.14294046724      
-842.410217484      
-21.2097251368      
-10275.6067548      
-217.873131377      
-7137.09880575      
-2019.68416804      
-17116.8445141      
-17466.5161499      
-630.010689585      
-1422.58299535      
-45.0129364928      
-249.692319335      
-25.0679174146      
-61.4929606938      
-13.2442179229      
-16.785434483       
-6.70309182577      
-4.0993103178       
-3.08104396845      
-0.439916894015     
-0.677762491735     
-0.556317354402     
-1.88579261639      
-9.92418574435      
-6740.55777821      
-15318.3547972      
-5376.14017153      
-1128.60469783      
-194.814154899      
-180.873168163      
-21.7480243686      
-41.2606221833      
-7.18890378559      
-10.2606694686      
-3.66120588696      
-2.10344770598      
-1.79134988013      
-0.081174284749     
-0.42392961791      
-0.532728816166     
-1.08511960805      
-3.09008106907      
-5747.87228687      
-14680.6118344      
-6302.06171656      
-1050.5891876       
-265.608519539      
-163.655114642      
-33.5323064067      
-36.3640774266      
-10.0075839001      
-8.68704600714      
-4.42457302389      
-1.61092794023      
-1.95732494054      
0.00778769830635    
-0.422712476133     
-0.529333555576     
-1.06851520427      
-2.58916391505      
-6696.65940742      
-14514.7973184      
-6546.73715742      
-1023.94523672      
-301.992519307      
-156.942625914      
-42.4188098468      
-34.0483411008      
-12.69552992        
-7.80271163565      
-5.31719915341      
-1.30235193562      
-2.2176548792       
0.0516394779731     
-0.429969384556     
-0.531600699167     
-1.31829603854      
-3.3291801879       
-16909.8778566      
-15915.3225757      
-6018.30681356      
-1239.83473191      
-339.135048405      
-209.066784156      
-63.4842944889      
-48.9181319276      
-20.9269532322      
-12.2443875766      
-8.45447838405      
-2.54042981098      
-3.2741910429       
-0.169239399318     
-0.505549742809     
-0.215618673838     
-2.43673610937      
-11.1710863181      
0.0904346441626     
0.189762501847      
0.00294023422297    
0.33721849169       
-0.100613133183     
0.12235621162       
-0.325797054835     
-0.29671816815      
-1.0208652307       
-0.791197082157     
-2.42203553236      
-1.31089721129      
-4.79643879606      
-2.12767605045      
-9.61459157107      
-7.16210993794      
-25.7826770431      
-62.9969249891      
-112.031455013      
-288.372023149      
-252.268714666      
-130.941822569      
-51.7750776076      
-20.1527724514      
-6.91866056087      
-5.11378909122      
-3.80695793797      
-1.99505551923      
-2.37400289139      
-1.02077649912      
-1.21390998336      
-0.447288339793     
-0.440277319136     
-0.0864470157478    
-0.0505674496674    
0.0808387032492     
0.0906150897201     
0.150539221512      
0.0488084723515     
0.110335799314      
-2.72511532096      
-2.73576671412      
-0.15485176832      
0.00955148238948    
0.00791831805538    
0.157134662629      
-0.0213755554648    
-0.119692815465     
-0.0637082641686    
-0.75744387739      
-0.0857594027368    
-2.00056848837      
-0.203062004105     
-4.63533130384      
-1.33183647008      
-12.3427950154      
-7.99086913673      
-51.0485959184      
-69.8717019074      
-170.86448452       
-180.280361525      
-59.928693747       
-41.7568268692      
-2.32236424535      
-4.26433470186      
-1.47724706677      
-0.962988434481     
-1.47162196934      
-0.327656176068     
-1.03292074553      
-0.0863549791396    
-0.551814571023     
0.035815261306      
-0.166252048584     
0.0851545013704     
0.0299501132348     
-0.00372989101678   
-0.183598439586     
-2.60212592891      
-2.66230301297      
-27.7451448529      
-15.9300652785      
-1.5253393192       
-0.585084767776     
-0.0298241915883    
0.0211223932959     
0.0268259017427     
0.0903596117989     
0.0291263307568     
-0.0202016038794    
0.00152532056551    
-0.433642434719     
-0.122404325235     
-1.68129767839      
-0.902407706977     
-6.60608545901      
-5.51050568162      
-40.1894110387      
-50.9439103791      
-137.545588771      
-136.87624557       
-49.006291152       
-34.6940662887      
-3.7150348793       
-3.89510339261      
-0.502982564276     
-0.808564678097     
-0.231418379678     
-0.207311967174     
-0.0810760119798    
-0.0159912265669    
0.0246615386984     
0.0461502599677     
0.0477592921836     
0.0133999546026     
-0.0349883930319    
-0.49590647819      
-1.42098060841      
-15.5228004779      
-26.987276208       
-73.6455249772      
-37.6755255187      
-3.84761941685      
-1.34457147225      
-0.145490670039     
-0.109749307459     
0.00322773947714    
0.0368593414721     
0.0320161092592     
-0.00489226210963   
0.0169752380711     
-0.277312724802     
-0.102860474824     
-1.27029496637      
-0.744155526144     
-5.41247043587      
-4.40921850065      
-34.6422852425      
-40.5413227167      
-112.829211817      
-112.008629307      
-39.2709190367      
-29.9761445305      
-3.70675839168      
-3.51341401699      
-0.604971192015     
-0.702996972196     
-0.186952135551     
-0.158849719135     
-0.0240988455188    
-0.00340231616081   
0.0345087398984     
0.0265832224308     
0.00855625917214    
-0.0875144799628    
-0.140283879286     
-1.21010172636      
-3.48951777513      
-37.151051554       
-72.0240285829      
-148.443134962      
-71.7534044824      
-7.53686055096      
-2.41763742253      
-0.337340168054     
-0.267942314565     
-0.04218747174      
-0.0036904545374    
0.0189909926094     
-0.00675758465805   
0.0188249680437     
-0.215487224025     
-0.0698983038589    
-1.02307492998      
-0.582036946579     
-4.50652419451      
-3.56341813328      
-29.5420952035      
-33.0485506544      
-93.8550820842      
-93.0253352008      
-32.0606944156      
-25.5414507486      
-3.26156856654      
-3.05281408489      
-0.570427840714     
-0.602158537536     
-0.163224133192     
-0.125854200826     
-0.0184571131276    
0.000426615086193   
0.0184282859186     
-0.00378181670037   
-0.0370317652677    
-0.224857504448     
-0.280345898091     
-2.25001416916      
-6.78102330875      
-71.2911402117      
-145.719900422      
-317.547690103      
-146.908942893      
-15.8764109332      
-4.63499473508      
-0.796478780855     
-0.569933294786     
-0.148127011674     
-0.0696474581847    
-0.0123437196483    
-0.00136391901214   
0.012564143246      
-0.132450891694     
-0.029905042391     
-0.731363370748     
-0.37439045247      
-3.4065229692       
-2.51274030572      
-22.5815622548      
-23.812206829       
-69.7695020215      
-68.9430339977      
-23.0989569858      
-19.4328768323      
-2.39474803365      
-2.36177818972      
-0.435269562366     
-0.451598489195     
-0.116936431406     
-0.0794549999124    
-0.00935251417387   
0.00075604796321    
-0.00709278326978   
-0.0637833657056    
-0.113441810922     
-0.48992391411      
-0.563121482087     
-4.41150745517      
-14.078463798       
-147.008486357      
-312.767179562      
-655.192613702      
-294.281247379      
-33.1305326406      
-8.77346397849      
-1.89888756732      
-1.10825222969      
-0.401053072541     
-0.187887358376     
-0.0776287645569    
-0.00111532323266   
-0.0030689748267    
-0.032843922955     
-0.00410039154327   
-0.396212236599     
-0.15592810604      
-2.15137510585      
-1.36756264708      
-14.5171219069      
-13.6723894862      
-42.699332292       
-41.9427817502      
-13.2281206903      
-12.3413778684      
-1.35704850906      
-1.51769520636      
-0.254238240039     
-0.259384485894     
-0.0550173832371    
-0.0184514684838    
0.000678004030251   
-0.00861036635228   
-0.0483555179869    
-0.173439332304     
-0.237697017524     
-0.939156066951     
-1.08171437386      
-8.35130554605      
-28.39283001        
-295.947561231      
-646.932927803      
-1155.21473853      
-510.090127897      
-63.0926133836      
-14.5141264016      
-4.68569254596      
-1.81875521614      
-1.12925175035      
-0.364551393968     
-0.293343274928     
-0.0408535968786    
-0.0451237703605    
0.0387239922626     
0.000103899390703   
-0.118038842812     
-0.023440719234     
-1.12251672958      
-0.499373277795     
-8.08089684723      
-6.10033873         
-21.8766685743      
-21.1593474581      
-5.90691084083      
-6.6883676099       
-0.584814999696     
-0.82184106277      
-0.110685096145     
-0.0771813337851    
-0.00246155603646   
0.0221574842557     
-0.00626693697097   
-0.0997283687036    
-0.129436313445     
-0.403089785934     
-0.44936650941      
-1.46830881283      
-1.89662288309      
-13.0266242747      
-49.443514542       
-512.515876579      
-1143.41912897      
-1738.16464573      
-775.941862153      
-148.874249487      
-20.7787587551      
-23.3446168176      
-2.70721757087      
-8.4972674656       
-0.785332124293     
-3.66442647411      
-0.306568073154     
-1.32709950753      
-0.0408761478969    
-0.156821013232     
0.0458292730777     
-0.0425226665649    
-0.46901323188      
-0.0604912010959    
-4.19860793738      
-1.55488879906      
-9.89886029608      
-8.53798625283      
-1.92539374662      
-3.67919693395      
-0.186892118506     
-0.560734494906     
-0.0306766109652    
0.0252337684841     
0.0148297333624     
-0.76997860316      
-0.133186614411     
-2.25909204618      
-0.513205793769     
-4.3096639539       
-1.27564425014      
-7.23103625705      
-4.06800299181      
-16.5539548618      
-79.4729262969      
-739.85114026       
-1769.97300537      
-11589.6090223      
-825.098000811      
-4261.08223195      
-35.6923813261      
-513.961777214      
-10.1064691956      
-105.390685391      
-3.54969701877      
-27.8447552996      
-1.36481222852      
-8.2958737          
-0.308062511648     
-2.36089390168      
0.134842251857      
-0.179214072065     
-0.0667651001722    
-2.30497255996      
-2.81142822979      
-3.51493664863      
-4.43660824609      
-3.05065346712      
-0.132087920794     
-5.23065261808      
-0.205065403551     
0.0600944368408     
0.0379418224123     
-1.08209230961      
-0.0187012136446    
-6.23104143339      
-0.475110816728     
-26.9290233108      
-1.5808239895       
-129.420288314      
-5.14243548682      
-842.547200542      
-21.208580252       
-10267.4684581      
-217.849193448      
-7142.58487278      
-2019.45707492      
-17115.3973687      
-17464.8332799      
-630.022343157      
-1422.42737721      
-44.9826605689      
-249.662384871      
-25.0598159133      
-61.4827959547      
-13.2411349849      
-16.7823828561      
-6.70187493166      
-4.09800252291      
-3.07991739506      
-0.439474044505     
-0.677089231202     
-0.557038606602     
-1.88827881021      
-9.93110615223      
-6734.92211123      
-15316.9097753      
-5377.04058732      
-1128.50755511      
-194.694652423      
-180.855881606      
-21.7391469527      
-41.2550417246      
-7.18702677869      
-10.258627338       
-3.66054168604      
-2.10276642018      
-1.79072774794      
-0.0810485795044    
-0.42351046669      
-0.533390536463     
-1.08677147269      
-3.09300465599      
-5747.35678778      
-14679.0583411      
-6300.76475999      
-1050.47140387      
-265.588669645      
-163.638479715      
-33.5232348032      
-36.3595658977      
-10.0056354346      
-8.68533884398      
-4.42380686545      
-1.61036677199      
-1.95681149746      
0.00786651885814    
-0.422308686397     
-0.529912289194     
-1.07017209676      
-2.59124812097      
-6701.06017478      
-14513.3310964      
-6545.61793964      
-1023.88314263      