# vtk DataFile Version 3.0
PyPan results file. Generated by PyPan, USU AeroLab (c) 2020.
ASCII
DATASET POLYDATA
POINTS 5482 float
-4.75               -4.0                0.0                 
-4.75               4.0                 0.0                 
-4.74605751038      -4.0018119812       7.70371977755e-34   
-4.74605751038      -4.00172328949      -0.000559891283046  
-4.74605751038      -4.00172328949      0.000559891283046   
-4.74605751038      -4.00146579742      -0.00106497656088   
-4.74605751038      -4.00146579742      0.00106497656088    
-4.74605751038      -4.00106477737      -0.00146581442095   
-4.74605751038      -4.00106477737      0.00146581442095    
-4.74605751038      -4.00055980682      -0.00172316818498   
-4.74605751038      -4.00055980682      0.00172316818498    
-4.74605751038      -4.0                -0.00181184627581   
-4.74605751038      -4.0                0.00181184627581    
-4.74605751038      4.0                 -0.00181184627581   
-4.74605751038      4.0                 0.00181184627581    
-4.74605751038      4.00055980682       -0.00172316818498   
-4.74605751038      4.00055980682       0.00172316818498    
-4.74605751038      4.00106477737       -0.00146581442095   
-4.74605751038      4.00106477737       0.00146581442095    
-4.74605751038      4.00146579742       -0.00106497656088   
-4.74605751038      4.00146579742       0.00106497656088    
-4.74605751038      4.00172328949       -0.000559891283046  
-4.74605751038      4.00172328949       0.000559891283046   
-4.74605751038      4.0018119812        7.70371977755e-34   
-4.74605321884      -3.99605345726      0.0                 
-4.74605321884      3.99605345726       0.0                 
-4.74211072922      -3.99605345726      -0.00181184627581   
-4.74211072922      -3.99605345726      0.00181184627581    
-4.74211072922      3.99605345726       -0.00181184627581   
-4.74211072922      3.99605345726       0.00181184627581    
-4.7342915535       -4.00344276428      0.0                 
-4.7342915535       -4.00327444077      -0.00106389739085   
-4.7342915535       -4.00327444077      0.00106389739085    
-4.7342915535       -4.00278520584      -0.00202365312725   
-4.7342915535       -4.00278520584      0.00202365312725    
-4.7342915535       -4.0020236969       -0.00278531946242   
-4.7342915535       -4.0020236969       0.00278531946242    
-4.7342915535       -4.0010638237       -0.00327433948405   
-4.7342915535       -4.0010638237       0.00327433948405    
-4.7342915535       -4.0                -0.00344284414314   
-4.7342915535       -4.0                0.00344284414314    
-4.7342915535       4.0                 -0.00344284414314   
-4.7342915535       4.0                 0.00344284414314    
-4.7342915535       4.0010638237        -0.00327433948405   
-4.7342915535       4.0010638237        0.00327433948405    
-4.7342915535       4.0020236969        -0.00278531946242   
-4.7342915535       4.0020236969        0.00278531946242    
-4.7342915535       4.00278520584       -0.00202365312725   
-4.7342915535       4.00278520584       0.00202365312725    
-4.7342915535       4.00327444077       -0.00106389739085   
-4.7342915535       4.00327444077       0.00106389739085    
-4.7342915535       4.00344276428       0.0                 
-4.73422956467      -3.98422932625      0.0                 
-4.73422956467      3.98422932625       0.0                 
-4.73034524918      -3.99605345726      -0.00344284414314   
-4.73034524918      -3.99605345726      0.00344284414314    
-4.73034524918      3.99605345726       -0.00344284414314   
-4.73034524918      3.99605345726       0.00344284414314    
-4.73028659821      -3.98422932625      -0.00181184627581   
-4.73028659821      -3.98422932625      0.00181184627581    
-4.73028659821      3.98422932625       -0.00181184627581   
-4.73028659821      3.98422932625       0.00181184627581    
-4.71852111816      -3.98422932625      -0.00344284414314   
-4.71852111816      -3.98422932625      0.00344284414314    
-4.71852111816      3.98422932625       -0.00344284414314   
-4.71852111816      3.98422932625       0.00344284414314    
-4.71488809586      -4.00608205795      0.0                 
-4.71488809586      -4.00578451157      -0.00187943771016   
-4.71488809586      -4.00578451157      0.00187943771016    
-4.71488809586      -4.00492048264      -0.00357490289025   
-4.71488809586      -4.00492048264      0.00357490289025    
-4.71488809586      -4.00357484818      -0.00492043187842   
-4.71488809586      -4.00357484818      0.00492043187842    
-4.71488809586      -4.00187921524      -0.00578431459144   
-4.71488809586      -4.00187921524      0.00578431459144    
-4.71488809586      -4.0                -0.00608198810369   
-4.71488809586      -4.0                0.00608198810369    
-4.71488809586      4.0                 -0.00608198810369   
-4.71488809586      4.0                 0.00608198810369    
-4.71488809586      4.00187921524       -0.00578431459144   
-4.71488809586      4.00187921524       0.00578431459144    
-4.71488809586      4.00357484818       -0.00492043187842   
-4.71488809586      4.00357484818       0.00492043187842    
-4.71488809586      4.00492048264       -0.00357490289025   
-4.71488809586      4.00492048264       0.00357490289025    
-4.71488809586      4.00578451157       -0.00187943771016   
-4.71488809586      4.00578451157       0.00187943771016    
-4.71488809586      4.00608205795       0.0                 
-4.71457433701      -3.96457457542      0.0                 
-4.71457433701      3.96457457542       0.0                 
-4.71094179153      -3.99605345726      -0.00608198810369   
-4.71094179153      -3.99605345726      0.00608198810369    
-4.71094179153      3.99605345726       -0.00608198810369   
-4.71094179153      3.99605345726       0.00608198810369    
-4.71063184738      -3.96457457542      -0.00181184627581   
-4.71063184738      -3.96457457542      0.00181184627581    
-4.71063184738      3.96457457542       -0.00181184627581   
-4.71063184738      3.96457457542       0.00181184627581    
-4.69911766052      -3.98422932625      -0.00608198810369   
-4.69911766052      -3.98422932625      0.00608198810369    
-4.69911766052      3.98422932625       -0.00608198810369   
-4.69911766052      3.98422932625       0.00608198810369    
-4.6988658905       -3.96457457542      -0.00344284414314   
-4.6988658905       -3.96457457542      0.00344284414314    
-4.6988658905       3.96457457542       -0.00344284414314   
-4.6988658905       3.96457457542       0.00344284414314    
-4.68815326691      -4.00961923599      0.0                 
-4.68815326691      -4.00914812088      -0.00297243497334   
-4.68815326691      -4.00914812088      0.00297243497334    
-4.68815326691      -4.00778198242      -0.00565390754491   
-4.68815326691      -4.00778198242      0.00565390754491    
-4.68815326691      -4.00565385818      -0.00778193585575   
-4.68815326691      -4.00565385818      0.00778193585575    
-4.68815326691      -4.00297260284      -0.00914821494371   
-4.68815326691      -4.00297260284      0.00914821494371    
-4.68815326691      -4.0                -0.00961900223047   
-4.68815326691      -4.0                0.00961900223047    
-4.68815326691      4.0                 -0.00961900223047   
-4.68815326691      4.0                 0.00961900223047    
-4.68815326691      4.00297260284       -0.00914821494371   
-4.68815326691      4.00297260284       0.00914821494371    
-4.68815326691      4.00565385818       -0.00778193585575   
-4.68815326691      4.00565385818       0.00778193585575    
-4.68815326691      4.00778198242       -0.00565390754491   
-4.68815326691      4.00778198242       0.00565390754491    
-4.68815326691      4.00914812088       -0.00297243497334   
-4.68815326691      4.00914812088       0.00297243497334    
-4.68815326691      4.00961923599       0.0                 
-4.68716621399      -3.93716621399      0.0                 
-4.68716621399      3.93716621399       0.0                 
-4.68420696259      -3.99605345726      -0.00961900223047   
-4.68420696259      -3.99605345726      0.00961900223047    
-4.68420696259      3.99605345726       -0.00961900223047   
-4.68420696259      3.99605345726       0.00961900223047    
-4.68322372437      -3.93716621399      -0.00181184627581   
-4.68322372437      -3.93716621399      0.00181184627581    
-4.68322372437      3.93716621399       -0.00181184627581   
-4.68322372437      3.93716621399       0.00181184627581    
-4.6794629097       -3.96457457542      -0.00608198810369   
-4.6794629097       -3.96457457542      0.00608198810369    
-4.6794629097       3.96457457542       -0.00608198810369   
-4.6794629097       3.96457457542       0.00608198810369    
-4.67238283157      -3.98422932625      -0.00961900223047   
-4.67238283157      -3.98422932625      0.00961900223047    
-4.67238283157      3.98422932625       -0.00961900223047   
-4.67238283157      3.98422932625       0.00961900223047    
-4.67145776749      -3.93716621399      -0.00344284414314   
-4.67145776749      -3.93716621399      0.00344284414314    
-4.67145776749      3.93716621399       -0.00344284414314   
-4.67145776749      3.93716621399       0.00344284414314    
-4.6545085907       -4.01391410828      -1.0111132208e-33   
-4.6545085907       -4.01323318481      -0.00429976172745   
-4.6545085907       -4.01323318481      0.00429976172745    
-4.6545085907       -4.01125669479      -0.0081786327064    
-4.6545085907       -4.01125669479      0.0081786327064     
-4.6545085907       -4.00817871094      -0.0112569229677    
-4.6545085907       -4.00817871094      0.0112569229677     
-4.6545085907       -4.00429964066      -0.0132333058864    
-4.6545085907       -4.00429964066      0.0132333058864     
-4.6545085907       -4.0                -0.0139143215492    
-4.6545085907       -4.0                0.0139143215492     
[...]
CELL_DATA 10960
SCALARS pressure_coefficient float 1
LOOKUP_TABLE default
-0.264854233863     
-0.284070131001     
-0.102434533568     
0.0437151515679     
-0.0313336206662    
0.0223593616383     
-0.0231074747125    
-0.0439066651313    
-0.0329221953058    
-0.128723282816     
-0.0497490625991    
-0.225627702862     
-0.0660303077593    
-0.32473135992      
-0.0783416770533    
-0.412595743904     
-0.0872568583375    
-0.468355756978     
-0.0974805724344    
-0.463634573969     
-0.115380151828     
-0.390072352313     
-0.140813419128     
-0.297125568671     
-0.165590171003     
-0.238098133139     
-0.18358589443      
-0.21353390595      
-0.194335476366     
-0.206732387332     
-0.198950741978     
-0.206218582546     
-0.197571500443     
-0.204815791471     
-0.189071793777     
-0.197481282287     
-0.170979030044     
-0.180171586308     
-0.138560640548     
-0.148575579791     
-0.0824651617257    
-0.094827356614     
0.0160421019429     
-0.000595062123276  
0.193628977939      
0.169305700923      
0.490462601765      
0.461338149795      
0.769374410615      
0.793552839068      
0.695704320352      
0.709380421841      
0.288651749311      
0.246631398647      
-0.00778086942806   
-0.052981191637     
-0.151798361609     
-0.178167380576     
-0.224754641713     
-0.233391027349     
-0.26016629624      
-0.259083278198     
-0.270707792413     
-0.270109479466     
-0.263852035123     
-0.272833897252     
-0.245230082963     
-0.270172068594     
-0.219339247518     
-0.263316776956     
-0.19009959279      
-0.251939930395     
-0.161419805047     
-0.233783853214     
-0.137964215319     
-0.206610439483     
-0.126646437727     
-0.175297306719     
-0.136634256839     
-0.148436503853     
-0.169318230605     
-0.120315186434     
-0.207063471234     
-0.0823781131147    
-0.226171539619     
-0.0367572160065    
-0.214247689088     
0.0110747983805     
-0.168877677966     
0.0575074821076     
-0.0922821678852    
0.102170907198      
0.00967460021       
0.146717281673      
0.126956685192      
0.186975649349      
0.305266773321      
0.274199427348      
0.669053252469      
0.812060138213      
0.0306345433736     
-0.112991293003     
-0.0381158431196    
-0.0323461836308    
-0.00938076568688   
-0.0137051173447    
-0.0260974253608    
-0.00468205882994   
-0.05066451348      
-0.0118297775521    
-0.0742231340023    
-0.0268064069297    
-0.0940043224681    
-0.0442261477637    
-0.110999998964     
-0.061854173511     
-0.126586348446     
-0.0790137466397    
-0.141524419769     
-0.0956745387956    
-0.155918966113     
-0.111969113182     
-0.169380377509     
-0.127874811845     
-0.181171633645     
-0.143008691144     
-0.190252578091     
-0.156526113174     
-0.195243149837     
-0.167165516901     
-0.194416964655     
-0.173287372725     
-0.185765822032     
-0.17290436408      
-0.167192545319     
-0.163608281714     
-0.136858624129     
-0.142312526972     
-0.093504931707     
-0.10461832568      
-0.0357211967978    
-0.0431064630913    
0.0425611119187     
0.0571315485529     
0.165715880205      
0.224000673614      
0.384491191462      
0.474454459215      
0.647941451449      
0.690379816695      
0.619594845897      
0.609873870832      
0.316034891304      
0.310962613344      
0.0454795285509     
0.0892120500724     
-0.106505694971     
-0.039543325374     
-0.190407445749     
-0.123859568347     
-0.236858720271     
-0.177865029666     
-0.261073137674     
-0.208015181583     
-0.270541251699     
-0.220629824896     
-0.269254268965     
-0.220820842899     
-0.259758289353     
-0.212280049687     
-0.244001646429     
-0.197650675758     
-0.223618375678     
-0.178844509798     
-0.199961431066     
-0.157217089265     
-0.174016863081     
-0.133690974731     
-0.146298040311     
-0.108879456143     
-0.116769260843     
-0.0831893315609    
-0.0849067770139    
-0.0568321750659    
-0.0498655958774    
-0.0296651199263    
-0.0106127323711    
-0.000924108111052  
0.0342541339892     
0.0312352742983     
0.0879083187313     
0.0712602228534     
0.159220120091      
0.131471197396      
0.259546409517      
0.234342631245      
0.339413352703      
0.362046336657      
0.393932937312      
0.495523403079      
0.13374105288       
0.101647444474      
0.0589872255387     
0.0499969621658     
0.0339645242813     
0.0158789390911     
0.00621380882807    
-0.0210970004213    
-0.0241388179008    
-0.0398780984854    
-0.0503360127705    
-0.0566881376735    
-0.0733458729244    
-0.0728274363705    
-0.0939901430028    
-0.0882173033363    
-0.11283922393      
-0.103019377652     
-0.130246105184     
-0.117446630541     
-0.146299485482     
-0.131618191067     
-0.160795368547     
-0.145408501851     
-0.17327706023      
-0.158319816159     
-0.183075717041     
-0.169411144945     
-0.189345826871     
-0.177325982916     
-0.191124005162     
-0.18035611893      
-0.18739237083      
-0.176546358327     
-0.177098797271     
-0.163831370752     
-0.159003982671     
-0.140185145231     
-0.131084361827     
-0.103575574507     
-0.0889606307313    
-0.0506749893507    
-0.0218786412103    
0.0275257199653     
0.0954201462543     
0.162164716305      
0.322378738025      
0.375582090342      
0.557737242676      
0.58467338904       
0.521986890719      
0.509346695447      
0.257551999556      
0.226149420348      
0.0176305336551     
0.0133551615483     
-0.115454809345     
-0.102283485414     
-0.181752988159     
-0.162367717979     
-0.216278013337     
-0.195054669526     
-0.233754003229     
-0.212915614588     
-0.239764547871     
-0.221143509104     
-0.236851185697     
-0.221929396688     
-0.226795434514     
-0.216436638159     
-0.211241055614     
-0.20561448176      
-0.191715800947     
-0.190390466419     
-0.169510731614     
-0.171622599213     
-0.145531834022     
-0.150002992861     
-0.120182441966     
-0.125993350945     
-0.0932705778243    
-0.0998100900291    
-0.0640240261761    
-0.0713438652007    
-0.0311419962223    
-0.0400253573577    
0.00724474512309    
-0.00461500019453   
0.0538554460041     
0.0374039261056     
0.112327281533      
0.0917427601414     
0.183736159084      
0.167816303869      
0.24353148577       
0.257215917007      
0.258411069065      
0.235450637477      
0.244256752233      
0.346797561831      
0.174036694321      
0.165436430513      
0.105770409498      
0.0753896170095     
0.0456238848883     
0.0963277413733     
0.0347829996116     
0.0141312781611     
-0.000286838993526  
-0.0284218614039    
-0.0325284803504    
-0.0535886483227    
-0.059447524432     
-0.0734662266381    
-0.0823184970092    
-0.0912591064948    
-0.102355447494     
-0.107821749313     
-0.120492645976     
-0.123488114262     
-0.137274792909     
-0.138415262811     
-0.152845650413     
-0.152546785816     
-0.167011034897     
-0.165530626002     
-0.179290900794     
-0.176667009046     
-0.188976177387     
-0.184964622813     
-0.195190776747     
-0.189236803746     
-0.196956189299     
-0.188215445029     
-0.193217406257     
-0.180603001648     
-0.182679989271     
-0.164897775026     
-0.16312988092      
-0.138671587281     
-0.129572957127     
-0.0967296131339    
-0.0703880277006    
-0.02527865966      
0.0512930987537     
0.105614551614      
0.286263146095      
0.307938964742      
0.495342271187      
0.519542898678      
0.454732135214      
0.439430064399      
0.209289604219      
0.161551273582      
-0.00882267560245   
-0.0306815324811    
-0.136674073495     
-0.136195142134     
-0.19575455975      
-0.188283657484     
-0.225715169294     
-0.215517818034     
-0.238168181816     
-0.228246311747     
-0.239460867828     
-0.231279188998     
-0.232709543235     
-0.227067500837     
-0.219914702922     
-0.217174366354     
-0.202589968527     
-0.202782508091     
-0.181985190902     
-0.184865204598     
-0.159089634624     
-0.164197574657     
-0.13454667586      
-0.141336058719     
-0.108559063729     
-0.116592187138     
-0.0808106297359    
-0.0900119655592    
-0.0504775245347    
-0.0612739094464    
-0.016310860043     
-0.0294526463621    
0.0231746265945     
0.00732878135633    
0.0690044348372     
0.0521131046484     
0.119686112127      
0.107501871861      
0.166593817795      
0.171147876404      
0.180310202471      
0.244420843872      
0.217647002644      
0.136348132985      
0.1490852399        
0.258487398495      
0.194617106907      
0.193829366654      
0.133527046471      
0.0540874380325     
0.0379689206192     
0.157544750719      
0.048614434639      
0.0613628591446     
0.0203616854805     
-0.000611499168673  
-0.0135069323278    
-0.0386326872082    
-0.0439032494337    
-0.0651836496055    
-0.0698639279574    
-0.0866051960482    
-0.0923704570019    
-0.105367418624     
-0.112471196568     
-0.122569300718     
-0.130961580501     
-0.138771431584     
-0.148272384166     
-0.154170667277     
-0.164468504439     
-0.168622533817     
-0.179284621286     
-0.181641612461     
-0.192189547798     
-0.192449680537     
-0.202438768997     
-0.200045678307     
-0.209108480927     
-0.203274773739     
-0.211040010264     
-0.200823109578     
-0.206542028793     
-0.190983066735     
-0.192619203575     
-0.170691843479     
-0.16318372419      
-0.134227388178     
-0.105405627553     
-0.062572405967     
0.0304582339        
0.0616980651634     
0.261492395042      
0.265156769379      
0.452865756506      
0.480977735778      
0.410233754176      
0.394474208332      
0.174490759695      
0.113115649965      
-0.0275985591479    
-0.068045072835     
-0.156909493101     
-0.165464336601     
-0.210783064875     
-0.212033087907     
-0.235479627138     
-0.232989435558     
-0.244253281464     
-0.24061595229      
-0.242283662319     
-0.239301257258     
-0.232703127881     
-0.231410745335     
-0.217485196434     
-0.218429379934     
-0.198149683287     
-0.201501368355     
-0.175907730424     
-0.181559977687     
-0.151660776646     
-0.159318240324     
-0.125935281388     
-0.135234564213     
-0.0988312216397    
-0.109490189136     
-0.0700023321199    
-0.0819577353922    
-0.0387875998217    
-0.0521517973487    
-0.00456370472792   
-0.01915642138      
0.0325963083432     
0.0181787502172     
0.0711416644921     
0.0604154574294     
0.107950490178      
0.107424012605      
0.136095588675      
0.16421241771       
0.12132427305       
0.24024288095       
0.201134545289      
0.0615464675996     
0.0830878172548     
0.198794081451      
0.207954402063      
0.210373806749      
0.153472800471      
0.023523919003      
0.0265364313101     
0.19461219698       
0.050706664671      
0.0997864415794     
0.0322616896312     
0.02944063741       
0.00199394701958    
-0.0173002206275    
-0.0287738712205    
-0.0504806987844    
-0.0566642321966    
-0.0764821628887    
-0.0813986930942    
-0.0985216576688    
-0.103664035941     
-0.118249946647     
-0.124228077896     
-0.136566373678     
-0.143646208714     
-0.153919624461     
-0.16215910895      
-0.17038555639      
-0.179668689883     
-0.185685723873     
-0.195759747234     
-0.199218290427     
-0.209721826481     
-0.210100884191     
-0.22053803009      
-0.217190743347     
-0.226781290211     
-0.219025142537     
-0.226317151176     
-0.213447872651     
-0.215430078301     
-0.197064712649     
-0.1883192229       
-0.162309666555     
-0.12743728625      
-0.0897378377426    
0.0221823384023     
0.028561839579      
0.242415965082      
0.238893821616      
0.423730597967      
0.45770147405       
0.380863575977      
0.365701903063      
0.149856891679      
0.0786771410046     
-0.0383460276163    
-0.0991665860375    
-0.170578930419     
-0.188200423003     
-0.22517520088      
-0.232621875673     
-0.244910780926     
-0.248863861883     
-0.250357022525     
-0.251980754351     
-0.245378698207     
-0.246594693604     
-0.233158598765     
-0.235129364842     
-0.215649171155     
-0.219092048561     
-0.194350494353     
-0.199612842471     
-0.170437284265     
-0.177586715347     
-0.144753820266     
-0.153669067444     
-0.117797814364     
-0.128253579126     
-0.0897164771517    
-0.101468023818     
-0.0604125794794    
-0.0731879016742    
-0.0298063275912    
-0.0430986610731    
0.00177042699292    
-0.0108697870345    
0.0333322873703     
0.0235671806897     
0.0636894755706     
0.0605243215116     
0.0914172576185     
0.103525022168      
0.107603407773      
0.162461891537      
0.0726441180185     
0.235053741675      
0.195518818936      
0.00433908150437    
0.036062969018      
0.156697998347      
0.218278009022      
0.222044938946      
0.169555746752      
-0.00551385558633   
0.0158626174686     
0.214553785209      
0.0469824513138     
0.128045031782      
0.0372696654643     
0.0543709954644     
0.0117251991663     
0.00301396497288    
-0.0169760807935    
-0.0340638375967    
-0.0448150943599    
-0.0635710160293    
-0.0706718032608    
-0.0887168364424    
-0.0946011005274    
-0.111157251249     
-0.117085208295     
-0.131903675963     
-0.138604986973     
-0.151548490397     
-0.159428595139     
-0.170319606514     
-0.17951073007      
-0.188083300506     
-0.198469518153     
-0.204348053193     
-0.21555863982      
-0.218268846653     
-0.229625741572     
-0.228634427016     
-0.239002000598     
-0.233772749631     
-0.241187041377     
-0.231214510281     
-0.2322158838       
-0.217471526592     
-0.206659554892     
-0.182211931711     
-0.139481400044     
-0.110993463794     
0.0196885500358     
0.00446728196604    
0.22691847258       
0.222816105654      
0.40385330414       
0.443776452837      
0.361999895354      
0.347534325445      
0.132738922152      
0.0552490990116     
-0.0442125551215    
-0.124114578543     
-0.1765239541       
-0.205595209299     
-0.236153512536     
-0.248521984852     
-0.252939810903     
-0.262291696426     
-0.255389196056     
-0.261727658989     
-0.247930008583     
-0.25286221068      
-0.233353219026     
-0.238156089549     
-0.21375429811      
-0.21925646789      
-0.190639571317     
-0.197334387451     
-0.165196658508     
-0.173290597644     
-0.138302723494     
-0.147774869617     
-0.110543217911     
-0.12119450443      
-0.0822833109116    
-0.0937443063312    
-0.0538095106852    
-0.0654825229723    
-0.0255036564441    
-0.0364321681476    
0.00212125497741    
-0.00660160984619   
0.0286702005384     
0.0243797548389     
0.0539483824788     
0.0584691986745     
0.0760348633584     
0.101854474671      
0.0825292729289     
0.163821722921      
0.0339697286493     
0.226992784404      
0.195352242131      
-0.0414403266654    
0.00174648391812    
0.126515127632      
0.227077621634      
0.231365809207      
0.18332835265       
-0.0312975862215    
0.00674386757545    
0.223752112443      
0.0411777643455     
0.148247689883      
0.0382525390058     
0.0741038820309     
0.0169194583663     
0.0196396651829     
-0.00925957494121   
-0.0196592561356    
-0.0358640453346    
-0.0509153424554    
-0.0615954910113    
-0.0780128191364    
-0.0862605321499    
-0.102622710832     
-0.11005764834      
-0.1256068044       
-0.133275458123     
-0.147502078412     
-0.156086715723     
-0.168561467005     
-0.178397699021     
-0.188708781003     
-0.199777877138     
-0.207492129286     
-0.219405462166     
-0.224058101677     
-0.235999336276     
-0.23711963439      
-0.247713424762     
-0.244827698322     
-0.25175377608      
-0.244669558617     
-0.244483691886     
-0.232479173499     
-0.219320561765     
-0.196171822121     
-0.144358279059     
-0.128286251125     
0.0191044960314     
-0.0124643891305    
0.214089468713      
0.213132605974      
0.39066601773       
0.435802148581      
0.350750084088      
0.336687773522      
0.121479657805      
0.0402274365155     
-0.0476635375825    
-0.142856680466     
-0.176343388745     
-0.219072858836     
-0.242470987411     
-0.259575618423     
-0.258911815193     
-0.272561274835     
-0.258808617661     
-0.269309848507     
-0.249457042594     
-0.257645690763     
-0.232995356893     
-0.240220954799     
-0.211686170668     
-0.218835502762     
-0.187122028001     
-0.194766931906     
-0.160569333604     
-0.16897977844      
-0.133017059367     
-0.14219086848      
-0.105214298691     
-0.114902609605     
-0.0777407169748    
-0.0874587805872    
-0.0510415324357    
-0.0600750728048    
-0.0254148756132    
-0.0328012527698    
-0.000922402954067  
-0.00530596097312   
0.0225551228609     
0.0235749208372     
0.0447418447208     
0.0570277422546     
0.0624399319044     
0.102502088862      
0.0606241173356     
0.165737499739      
0.00340058047952    
0.218356528625      
0.19824700906       
-0.0791771026431    
-0.0239167653505    
0.104645536618      
0.234925122077      
0.239289823061      
0.19543605395       
-0.0539824123525    
-0.000848617631301  
0.227042847827      
0.0351811937451     
0.162247975476      
0.0370099340113     
0.0897478848596     
0.0192647941378     
0.0330082554014     
-0.00471802297418   
-0.00816840600528   
-0.0299168499484    
-0.0403877007859    
-0.0549119487959    
-0.0682997035683    
-0.0795061541631    
-0.0940863074007    
-0.103856026793     
-0.118647982013     
-0.128138684163     
-0.142386495043     
-0.152400161109     
-0.165451051453     
-0.176442291263     
-0.187716210232     
-0.199741954022     
-0.208704455857     
-0.221374681077     
-0.22752601756      
-0.239945231699     
-0.242819474704     
-0.253446559841     
-0.252633985442     
-0.25894407487      
-0.254463237131     
-0.253272052109     
-0.242891421945     
-0.227105747565     
-0.206174413378     
-0.144550198567     
-0.142285381537     
0.0183677410779     
-0.0239673003715    
0.20347508151       
0.207439473992      
0.3824032118        
0.43167117249       
0.34511130303       
0.331095879968      
0.114812230983      
0.0315608199545     
-0.0499350934498    
-0.155739328168     
-0.172395283792     
-0.229382075443     
-0.244338145113     
-0.26652057379      
-0.262592072853     
-0.279436681514     
-0.260684240917     
-0.274531332402     
-0.249905379343     
-0.260700941032     
-0.232142537563     
-0.241160271484     
-0.209641216491     
-0.217797414896     
-0.184168612457     
-0.192047174155     
-0.15710536524      
-0.164987521676     
-0.129564585764     
-0.137447830567     
-0.102399524545     
-0.110040209139     
-0.0762051901816    
-0.0831779197401    
-0.0512803191104    
-0.0570063886837    
-0.0276290439411    
-0.0313147837507    
-0.00504849405161   
-0.0053510024762    
0.0165729478135     
0.0226263399826     
0.0365211264324     
0.0566992073992     
0.0504027253383     
0.104511048353      
0.0417228929103     
0.16699069607       
-0.0209675115772    
0.211154989834      
0.202884749529      
-0.110800401375     
-0.0434358104728    
0.0887026445992     
0.24207252142       
0.246228262661      
0.206229081661      
-0.0739421648339    
-0.00717146713694   
0.227623531341      
0.0297924538054     
0.171570744364      
0.0346046436813     
0.102079764202      
0.0199001561886     
0.0439207278922     
-0.00227746159697   
0.000958133831839   
-0.02626769489      
-0.0321900289104    
-0.0504661878418    
-0.0604884155544    
-0.0746407356955    
-0.0866964860194    
-0.0989958603878    
-0.112038266844     
-0.12372925933      
-0.136960195394     
-0.148843199289     
-0.161520002463     
-0.174056660412     
-0.185487424443     
-0.198748190351     
-0.208300587784     
-0.221887817812     
-0.229002045317     
-0.24197069354      
-0.246146376065     
-0.256826986905     
-0.257747783798     
-0.263582805763     
-0.261122512053     
-0.25919141523      
-0.249621177591     
-0.230924484032     
-0.21358329921      
-0.142106240009     
-0.153247510728     
0.0166599391464     
-0.0315364042132    
0.19476165544       
0.204143674013      