# vtk DataFile Version 3.0
PyPan results file. Generated by PyPan, USU AeroLab (c) 2020.
ASCII
DATASET POLYDATA
POINTS 492 float
-4.75               -4.0                0.0                 
-4.75               4.0                 0.0                 
-4.7255282402       -4.00441503525      -0.00143460487016   
-4.7255282402       -4.00441503525      0.00143460487016    
-4.7255282402       -4.00272893906      -0.00375584419817   
-4.7255282402       -4.00272893906      0.00375584419817    
-4.7255282402       -4.0                -0.00464247865602   
-4.7255282402       -4.0                0.00464247865602    
-4.7255282402       4.0                 -0.00464247865602   
-4.7255282402       4.0                 0.00464247865602    
-4.7255282402       4.00272893906       -0.00375584419817   
-4.7255282402       4.00272893906       0.00375584419817    
-4.7255282402       4.00441503525       -0.00143460487016   
-4.7255282402       4.00441503525       0.00143460487016    
-4.6545085907       -4.01323318481      -0.00429976172745   
-4.6545085907       -4.01323318481      0.00429976172745    
-4.6545085907       -4.00817871094      -0.0112569229677    
-4.6545085907       -4.00817871094      0.0112569229677     
-4.6545085907       -4.0                -0.0139143215492    
-4.6545085907       -4.0                0.0139143215492     
-4.6545085907       4.0                 -0.0139143215492    
-4.6545085907       4.0                 0.0139143215492     
-4.6545085907       4.00817871094       -0.0112569229677    
-4.6545085907       4.00817871094       0.0112569229677     
-4.6545085907       4.01323318481       -0.00429976172745   
-4.6545085907       4.01323318481       0.00429976172745    
-4.65211296082      -3.90211296082      0.0                 
-4.65211296082      3.90211296082       0.0                 
-4.62764120102      -3.90211296082      -0.00464247865602   
-4.62764120102      -3.90211296082      0.00464247865602    
-4.62764120102      3.90211296082       -0.00464247865602   
-4.62764120102      3.90211296082       0.00464247865602    
-4.55662155151      -3.90211296082      -0.0139143215492    
-4.55662155151      -3.90211296082      0.0139143215492     
-4.55662155151      3.90211296082       -0.0139143215492    
-4.55662155151      3.90211296082       0.0139143215492     
-4.54389286041      -4.02558851242      -0.00831415317953   
-4.54389286041      -4.02558851242      0.00831415317953    
-4.54389286041      -4.01581430435      -0.0217667371035    
-4.54389286041      -4.01581430435      0.0217667371035     
-4.54389286041      -4.0                -0.0269051659852    
-4.54389286041      -4.0                0.0269051659852     
-4.54389286041      4.0                 -0.0269051659852    
-4.54389286041      4.0                 0.0269051659852     
-4.54389286041      4.01581430435       -0.0217667371035    
-4.54389286041      4.01581430435       0.0217667371035     
-4.54389286041      4.02558851242       -0.00831415317953   
-4.54389286041      4.02558851242       0.00831415317953    
-4.44600582123      -3.90211296082      -0.0269051659852    
-4.44600582123      -3.90211296082      0.0269051659852     
-4.44600582123      3.90211296082       -0.0269051659852    
-4.44600582123      3.90211296082       0.0269051659852     
-4.4045085907       -4.03891468048      -0.0126441745088    
-4.4045085907       -4.03891468048      0.0126441745088     
-4.4045085907       -4.02405071259      -0.0331028774381    
-4.4045085907       -4.02405071259      0.0331028774381     
-4.4045085907       -4.0                -0.0409174077213    
-4.4045085907       -4.0                0.0409174077213     
-4.4045085907       4.0                 -0.0409174077213    
-4.4045085907       4.0                 0.0409174077213     
-4.4045085907       4.02405071259       -0.0331028774381    
-4.4045085907       4.02405071259       0.0331028774381     
-4.4045085907       4.03891468048       -0.0126441745088    
-4.4045085907       4.03891468048       0.0126441745088     
-4.36803388596      -3.61803388596      0.0                 
-4.36803388596      3.61803388596       0.0                 
-4.34356212616      -3.61803388596      -0.00464247865602   
-4.34356212616      -3.61803388596      0.00464247865602    
-4.34356212616      3.61803388596       -0.00464247865602   
-4.34356212616      3.61803388596       0.00464247865602    
-4.30662155151      -3.90211296082      -0.0409174077213    
-4.30662155151      -3.90211296082      0.0409174077213     
-4.30662155151      3.90211296082       -0.0409174077213    
-4.30662155151      3.90211296082       0.0409174077213     
-4.27254247665      -3.61803388596      -0.0139143215492    
-4.27254247665      -3.61803388596      0.0139143215492     
-4.27254247665      3.61803388596       -0.0139143215492    
-4.27254247665      3.61803388596       0.0139143215492     
-4.25               -4.05034923553      -0.0163594372571    
-4.25               -4.05034923553      0.0163594372571     
-4.25               -4.03111743927      -0.0428295619786    
-4.25               -4.03111743927      0.0428295619786     
-4.25               -4.0                -0.0529402531683    
-4.25               -4.0                0.0529402531683     
-4.25               4.0                 -0.0529402531683    
-4.25               4.0                 0.0529402531683     
-4.25               4.03111743927       -0.0428295619786    
-4.25               4.03111743927       0.0428295619786     
-4.25               4.05034923553       -0.0163594372571    
-4.25               4.05034923553       0.0163594372571     
-4.16192674637      -3.61803388596      -0.0269051659852    
-4.16192674637      -3.61803388596      0.0269051659852     
-4.16192674637      3.61803388596       -0.0269051659852    
-4.16192674637      3.61803388596       0.0269051659852     
-4.15211296082      -3.90211296082      -0.0529402531683    
-4.15211296082      -3.90211296082      0.0529402531683     
-4.15211296082      3.90211296082       -0.0529402531683    
-4.15211296082      3.90211296082       0.0529402531683     
-4.0954914093       -4.05665874481      -0.0184096004814    
-4.0954914093       -4.05665874481      0.0184096004814     
-4.0954914093       -4.03501701355      -0.0481969565153    
-4.0954914093       -4.03501701355      0.0481969565153     
-4.0954914093       -4.0                -0.0595747157931    
-4.0954914093       -4.0                0.0595747157931     
-4.0954914093       4.0                 -0.0595747157931    
-4.0954914093       4.0                 0.0595747157931     
-4.0954914093       4.03501701355       -0.0481969565153    
-4.0954914093       4.03501701355       0.0481969565153     
-4.0954914093       4.05665874481       -0.0184096004814    
-4.0954914093       4.05665874481       0.0184096004814     
-4.02254247665      -3.61803388596      -0.0409174077213    
-4.02254247665      -3.61803388596      0.0409174077213     
-4.02254247665      3.61803388596       -0.0409174077213    
-4.02254247665      3.61803388596       0.0409174077213     
-3.99760460854      -3.90211296082      -0.0595747157931    
-3.99760460854      -3.90211296082      0.0595747157931     
-3.99760460854      3.90211296082       -0.0595747157931    
-3.99760460854      3.90211296082       0.0595747157931     
-3.95610737801      -4.05488920212      -0.0178346466273    
-3.95610737801      -4.05488920212      0.0178346466273     
-3.95610737801      -4.03392362595      -0.046691711992     
-3.95610737801      -4.03392362595      0.046691711992      
-3.95610737801      -4.0                -0.0577141307294    
-3.95610737801      -4.0                0.0577141307294     
-3.95610737801      4.0                 -0.0577141307294    
-3.95610737801      4.0                 0.0577141307294     
-3.95610737801      4.03392362595       -0.046691711992     
-3.95610737801      4.03392362595       0.046691711992      
-3.95610737801      4.05488920212       -0.0178346466273    
-3.95610737801      4.05488920212       0.0178346466273     
-3.92557048798      -3.17557048798      0.0                 
-3.92557048798      3.17557048798       0.0                 
-3.90109872818      -3.17557048798      -0.00464247865602   
-3.90109872818      -3.17557048798      0.00464247865602    
-3.90109872818      3.17557048798       -0.00464247865602   
-3.90109872818      3.17557048798       0.00464247865602    
-3.86803388596      -3.61803388596      -0.0529402531683    
-3.86803388596      -3.61803388596      0.0529402531683     
-3.86803388596      3.61803388596       -0.0529402531683    
-3.86803388596      3.61803388596       0.0529402531683     
-3.85822033882      -3.90211296082      -0.0577141307294    
-3.85822033882      -3.90211296082      0.0577141307294     
-3.85822033882      3.90211296082       -0.0577141307294    
-3.85822033882      3.90211296082       0.0577141307294     
-3.8454914093       -4.0437951088       -0.0142299029976    
-3.8454914093       -4.0437951088       0.0142299029976     
-3.8454914093       -4.02706670761      -0.037254370749     
-3.8454914093       -4.02706670761      0.037254370749      
-3.8454914093       -4.0                -0.0460489317775    
-3.8454914093       -4.0                0.0460489317775     
-3.8454914093       4.0                 -0.0460489317775    
-3.8454914093       4.0                 0.0460489317775     
-3.8454914093       4.02706670761       -0.037254370749     
-3.8454914093       4.02706670761       0.037254370749      
-3.8454914093       4.0437951088        -0.0142299029976    
-3.8454914093       4.0437951088        0.0142299029976     
-3.83007907867      -3.17557048798      -0.0139143215492    
-3.83007907867      -3.17557048798      0.0139143215492     
-3.83007907867      3.17557048798       -0.0139143215492    
-3.83007907867      3.17557048798       0.0139143215492     
-3.7744717598       -4.0246257782       -0.00800147373229   
[...]
CELL_DATA 980
SCALARS pressure_coefficient float 1
LOOKUP_TABLE default
-0.211222144923     
-0.24143903297      
-0.163243840281     
-0.109266847121     
-0.12257543298      
-0.10378155292      
-0.105630103033     
-0.128152521849     
-0.11834608515      
-0.166011052393     
-0.10237833179      
-0.121264938677     
-0.101931987029     
-0.0734786417416    
-0.111533235633     
-0.0309442900445    
0.0587525719224     
0.122245288283      
0.427196218155      
0.4950453497        
0.204410399599      
-0.00631803459251   
-0.112596055737     
-0.271420363786     
-0.250782172336     
-0.302174430972     
-0.164074799354     
-0.193296950196     
-0.090484084845     
-0.0876956825967    
-0.0781525502538    
-0.05922970601      
0.0143035426013     
0.0322858967592     
0.142975541772      
0.178583692118      
0.290470594778      
0.368075567466      
0.462723771431      
0.590281133958      
-0.0440008644883    
-0.0882428550253    
-0.0824121354478    
-0.0443541972438    
-0.0753001574028    
-0.0375114538302    
-0.0826890840431    
-0.0675065680135    
-0.0998292878748    
-0.0907361504217    
-0.124587493826     
-0.111827418224     
-0.139794762643     
-0.122780022682     
-0.0972721012032    
-0.113220188734     
0.00682470391579    
0.0165648935647     
0.362029091765      
0.44769151379       
0.0714505913141     
-0.220544883361     
-0.294099879344     
-0.517584941453     
-0.264125208727     
-0.405455423164     
-0.218817367118     
-0.273018767802     
-0.136810080878     
-0.163251764747     
-0.0481087832739    
-0.0586944836603    
0.0295477411837     
0.0381080950627     
0.097015143783      
0.134707682412      
0.171573096092      
0.190844559132      
0.357082682604      
0.382222696515      
-0.019739401338     
-0.0696824460195    
-0.0558813593192    
-0.0104923348006    
-0.0528016294955    
-0.00813364093892   
-0.0773240769422    
-0.0545686060521    
-0.106058141173     
-0.0949478993977    
-0.138285045811     
-0.135014761975     
-0.160776814022     
-0.166350788678     
-0.151165505266     
-0.14949817997      
-0.0581418205565    
0.0107096935269     
0.348170718892      
0.440862561999      
0.108865452276      
-0.146110461139     
-0.286947557241     
-0.449304134666     
-0.274495157169     
-0.376617176755     
-0.209236794931     
-0.25986452741      
-0.136771532558     
-0.147198345153     
-0.0627534471756    
-0.0511804558323    
0.00570462669454    
0.0356702154153     
0.0733113114893     
0.124444446874      
0.148225645373      
0.152387202679      
0.316273058115      
0.299549313102      
0.0249084750803     
-0.0497853767197    
-0.0458814863118    
-0.0157260405823    
-0.0583995797921    
-0.0238907444086    
-0.0817130715098    
-0.0647670999701    
-0.112294379721     
-0.103162736538     
-0.145174805921     
-0.144540359274     
-0.169945290946     
-0.175170026259     
-0.166867711551     
-0.158320386438     
-0.0695019415395    
-0.0122651240046    
0.350662369906      
0.425086489923      
0.13099757131       
-0.040973417628     
-0.281581931844     
-0.372066034956     
-0.280263447784     
-0.325335457265     
-0.217869545537     
-0.232197804671     
-0.148006702532     
-0.135050029378     
-0.0775760343019    
-0.0473643338646    
-0.0111736003165    
0.0318155722772     
0.0527217083404     
0.113460159873      
0.138916779614      
0.150651319784      
0.325090092608      
0.315629624928      
0.116324292001      
-0.0174319962375    
-0.0335420418462    
-0.0234671794545    
-0.0821886007309    
-0.0446633992761    
-0.0935983671062    
-0.0771424369997    
-0.120922788245     
-0.112085579733     
-0.148887746561     
-0.15108881642      
-0.167091957646     
-0.179160941306     
-0.15902968054      
-0.162274541327     
-0.0585224012248    
-0.0244911958364    
0.358591065672      
0.411553690843      
0.122114088859      
0.0035597831691     
-0.28895311025      
-0.33722018264      
-0.287090601652     
-0.301973775542     
-0.228096588213     
-0.219080776196     
-0.163677601098     
-0.129379975663     
-0.0989701352113    
-0.0463913611289    
-0.0377752089641    
0.0281376936433     
0.0127352677906     
0.101812123239      
0.121999481691      
0.154494715958      
0.348685593879      
0.343015748256      
0.174600455004      
-0.0182864424569    
-0.0226320967185    
-0.0177529062084    
-0.0949974863268    
-0.0345767842374    
-0.099043428288     
-0.0670621209829    
-0.123568083458     
-0.102442850035     
-0.147371008724     
-0.143281040361     
-0.159524031601     
-0.173509723214     
-0.147348424911     
-0.158874979223     
-0.046405752207     
-0.0248537093716    
0.360742624217      
0.40423287169       
0.1051470769        
0.00374662751438    
-0.296483633354     
-0.332119514103     
-0.290450022496     
-0.29640690441      
-0.232252973295     
-0.21314557004      
-0.172526459325     
-0.122808708865     
-0.11250723544      
-0.0397234642977    
-0.0558362132922    
0.0329385643527     
-0.0159320223403    
0.104044824882      
0.104774581228      
0.148695802125      
0.350400526308      
0.324388373326      
0.191032851463      
-0.0366292301853    
-0.01656931374      
-0.00730294151845   
-0.0924366880482    
-0.0101716002225    
-0.0980467493766    
-0.0465754662971    
-0.122737878621     
-0.0852673709777    
-0.147158396718     
-0.13056637391      
-0.158593899241     
-0.166318015656     
-0.144612681589     
-0.156395410856     
-0.0463640511661    
-0.0245967120494    
0.354118487584      
0.400588895534      
0.101561152377      
-0.00672347229616   
-0.293164006266     
-0.336031427032     
-0.285911921228     
-0.296367813815     
-0.228535773466     
-0.208750661818     
-0.171965484272     
-0.115105161081     
-0.112984630845     
-0.0299452615159    
-0.0579859583608    
0.0436533008046     
-0.0212411260088    
0.115231237987      
0.0935765726642     
0.140673946758      
0.332293682368      
0.285842866752      
0.249660981874      
0.00748294533895    
0.00544849159461    
0.00755575899061    
-0.0869533641929    
0.00415560135913    
-0.0919249171217    
-0.0332432911324    
-0.118127064585     
-0.0789039783185    
-0.150203643461     
-0.128442303284     
-0.16899132216      
-0.168057320711     
-0.149174363693     
-0.162182031556     
-0.0510412320455    
-0.0326404320962    
0.348478706344      
0.396191331637      
0.107204671146      
0.00190579390967    
-0.286477098595     
-0.32795268538      
-0.281650828289     
-0.28903616835      
-0.231895559967     
-0.20233671552      
-0.174797965041     
-0.111209679924     
-0.112775628593     
-0.0257226125604    
-0.062131571769     
0.0515106352934     
-0.0384050130774    
0.117570805524      
0.0698054213106     
0.137854040305      
0.308260318819      
0.27418157812       
0.169329553548      
-0.00833630514148   
-0.0113407977579    
0.0399970848413     
-0.036593759811     
0.0654885251423     
-0.0381993841848    
-0.00126518253428   
-0.064435078564     
-0.0646577936136    
-0.107581291126     
-0.12126834597      
-0.151434695841     
-0.164960501807     
-0.162651326337     
-0.168461150136     
-0.0692955099431    
-0.0443101506256    
0.34573836852       
0.392315505651      
0.107980989232      
0.029459368928      
-0.29375669223      
-0.304473485516     
-0.273078161111     
-0.261511680926     
-0.200755099377     
-0.175628172856     
-0.117931214917     
-0.0881285700549    
-0.0447796712778    
-0.00295702439195   
0.00809831880072    
0.0823717191152     
0.0291454548899     
0.160234436454      
0.0709612178886     
0.137104703545      
0.223807574496      
0.205914019848      
0.0895498161393     
0.106737462552      
0.0224580296443     
0.0891408773655     
-0.0129108212124    
-0.0114472727714    
-0.060512323902     
-0.0512804080547    
-0.0962819565322    
-0.0802310338126    
-0.129109564769     
-0.114144699835     
-0.15974051955      
-0.13831024532      
-0.173506262738     
-0.121605006104     
-0.105228136322     
-0.0404965352733    
0.349717300348      
0.391948221383      
0.210509311241      
0.121470445371      
-0.175136473394     
-0.156064866936     
-0.161054107633     
-0.152048610254     
-0.107005007255     
-0.134100221814     
-0.0443061603102    
-0.0971047444236    
0.0104342501616     
-0.0549272251589    
0.0629923444251     
-0.00457324201422   
0.135370277666      
0.098377135216      
0.149908201762      
0.178862467238      
0.153986676089      
0.172736626903      
-0.0699137864067    
-0.184621937501     
-0.16067316662      
-0.164741638435     
-0.147198815456     
-0.16280979768      
-0.14145272515      
-0.168769126361     
-0.148365614044     
-0.179731148224     
-0.16950528209      
-0.192865388497     
-0.202322229424     
-0.193375461351     
-0.230934679377     
-0.127129222896     
-0.162686566172     
0.531715663736      
-0.0829336298624    
-0.227469610138     
-0.124200853012     
-0.185847114745     
-0.111686928096     
-0.1762469209       
-0.12673884249      
-0.179188069605     
-0.144512709691     
-0.189001444411     
-0.172580629938     
-0.201192481239     
-0.212611868904     
-0.204418630584     
-0.260509374918     
-0.180063970234     
-0.328830801169     
0.503413730365      
-0.0819382772549    
-0.223781530285     
-0.129901641416     
-0.179274666031     
-0.112150733836     
-0.169239119381     
-0.12549768164      
-0.173295744742     
-0.142517575037     
-0.184802595583     
-0.170008276357     
-0.19914769567      
-0.20893310892      
-0.204946280123     
-0.253721472547     
-0.185676483386     
-0.328762143018     
0.470417091714      
-0.0878831496928    
-0.241442143253     
-0.112096357937     
-0.170398746569     
-0.0942947927538    
-0.150587156122     
-0.110623631044     
-0.153924887625     
-0.130496933184     
-0.169510231101     
-0.160918564508     
-0.19269198353      
-0.204054400743     
-0.213240920372     
-0.256178994907     
-0.2213521929       
-0.360797007585     
0.377864030247      
-0.0855173306302    
-0.281559045459     
-0.171518720548     
-0.166292505079     
-0.123271958116     
-0.128491946918     
-0.120661543701     
-0.1303632963       
-0.132282504483     
-0.14636311243      
-0.159352283036     
-0.169658475267     
-0.201798227469     
-0.184992398819     
-0.250220037671     
-0.148851395634     
-0.267532692093     
0.337034869417      
-0.211225654616     
-0.241438899982     
-0.163244027863     
-0.109269609149     
-0.122575968255     
-0.103782178501     
-0.105630044778     
-0.128152458903     
-0.118345775211     
-0.166010836154     
-0.10237839378      
-0.12126519639      
-0.101932045483     
-0.0734790867829    
-0.111532960116     
-0.0309447225248    
0.058752361382      
0.122245109258      
0.427196590927      
0.495046190045      
0.204410662811      
-0.00631792194289   
-0.112597061793     
-0.271421308285     
-0.250782187656     
-0.302174871222     
-0.164074990018     
-0.193297553007     
-0.0904842288518    
-0.0876964333392    
-0.0781522682887    
-0.059230162458     
0.0143036012041     
0.032285326981      
0.142974646859      
0.178581763442      
0.290469784604      
0.368072320395      
0.46272481293       
0.590281339179      
-0.044002359433     
-0.0882437392714    
-0.0824125416524    
-0.0443554343068    
-0.0753003944506    
-0.0375132622427    
-0.082689494139     
-0.0675080322034    
-0.0998296914259    
-0.090737162874     
-0.124587677907     
-0.111828092691     
-0.139795106578     
-0.122780597512     
-0.0972728596519    
-0.113220390939     
0.00682404514537    
0.0165651164743     
0.362029796392      
0.447692089888      
0.0714506817171     
-0.220543525955     
-0.29410047515      
-0.517584095179     
-0.26412610315      
-0.40545508006      
-0.218817744371     
-0.273018832677     
-0.136810401159     
-0.163252092078     
-0.0481091516827    
-0.0586949992348    
0.0295474866712     
0.0381075150324     
0.0970152777232     
0.134707507812      
0.171573689444      
0.190845706714      
0.357083958448      
0.382225464481      
-0.0197411172722    
-0.069682805229     
-0.0558819037514    
-0.0104929175269    
-0.0528013347436    
-0.0081344737129    
-0.0773241003223    
-0.054569381253     
-0.106058103559     
-0.0949485616336    
-0.138285055686     
-0.13501511379      
-0.16077706736      
-0.166351067458     
-0.151165937628     
-0.149498374109     
-0.0581422023799    
0.0107093140407     
0.34817098414       
0.440862749909      
0.108866145803      
-0.146108464481     
-0.286948461642     
-0.449303433937     
-0.274495883969     
-0.376616650966     
-0.209237430598     
-0.259864446129     
-0.136771942254     
-0.147198668884     
-0.0627536026492    
-0.0511807034439    
0.00570485332643    
0.03567004743       
0.0733117970584     
0.124444131952      
0.148226166395      
0.152388201256      
0.316273236952      
0.299551413402      
0.0249069088946     
-0.0497859314343    
-0.0458822368075    
-0.0157268581375    
-0.0583998038834    
-0.0238916809038    
-0.0817130807561    
-0.0647678697835    
-0.112294404406     
-0.103163334717     
-0.145174694171     
-0.144540591815     
-0.169945416651     
-0.175170125214     
-0.166867925286     
-0.158320402379     
-0.0695019366046    
-0.0122652983414    
0.350663166826      
0.425086607255      
0.130997108049      
-0.0409728811849    
-0.281582201316     
-0.372065396059     
-0.280263526843     
-0.325334940579     
-0.217870006484     
-0.232197820741     
-0.148007125589     
-0.135050364309     
-0.077576087233     
-0.0473645811178    
-0.0111735742459    
0.0318153527701     
0.0527218173404     
0.113459523686      
0.138917415727      
0.150652402314      
0.325089413501      
0.315630961811      
0.116324077346      
-0.0174313688622    
-0.0335418544179    
-0.0234672968191    
-0.0821883195838    
-0.0446646280482    
-0.0935986675417    
-0.0771431631353    
-0.120922829039     
-0.112086162898     
-0.148887669784     
-0.151088979105     
-0.167092023859     
-0.179161141916     
-0.159029727973     
-0.162274714733     
-0.0585218857601    
-0.0244909920425    
0.358591557534      
0.411553791217      
0.122113754834      
0.00356032707893    
-0.288952486528     
-0.337218749719     
-0.287090779964     
-0.301973489362     
-0.228096922238     
-0.21908083056      
-0.163678042058     
-0.129380378186     
-0.0989702421454    
-0.046391551222     
-0.0377749914191    
0.0281375212603     
0.0127351569616     
0.101811962877      
0.122000318845      
0.15449535569       
0.348686356083      
0.343017522491      
0.174601004749      
-0.0182860369869    
-0.0226354299104    
-0.017755001792     
-0.09500075439      
-0.0345782949267    
-0.0990437542042    
-0.0670627557408    
-0.12356817088      
-0.102443215319     
-0.147370909331     
-0.143281063666     
-0.159524159877     
-0.173509777474     
-0.147348310701     
-0.158875241903     
-0.0464059072457    
-0.0248537201688    
0.360742463991      
0.404233094065      
0.10514723303       
0.00374673792037    
-0.296483229302     
-0.332119375626     
-0.290450570494     
-0.296406499396     
-0.232253336813     
-0.213145680056     
-0.172527125495     
-0.122809185294     
-0.11250817996      
-0.0397238253452    
-0.0558365664445    
0.0329384013813     
-0.015933040675     
0.104044935122      
0.104771876032      
0.14869609659       
0.35040193992       
0.3243898236        
0.191038641795      
-0.0366298841789    
-0.0165706056971    
-0.00730383273392   
-0.0924371461868    
-0.010170341049     
-0.0980463053452    
-0.0465747384197    
-0.122737332244     
-0.0852669082299    
-0.14715756591      
-0.13056583827      
-0.158593166993     
-0.166317899515     
-0.14461272752      
-0.15639528392      
-0.0463622602969    
-0.0245973184302    
0.35411751063       
0.400588743116      
0.101558210651      
-0.00672794718883   
-0.29316478175      
-0.336030070666     
-0.285911873127     
-0.296367878163     
-0.228535800864     
-0.2087506779       
-0.171965961237     
-0.115105402117     
-0.11298430576      
-0.0299448129057    
-0.0579863147852    
0.0436535372776     
-0.0212402230638    
0.115232677572      
0.0935766360863     
0.140675379475      
0.332290261698      
0.285842745815      
0.249660761764      
0.00748243801444    
0.00544894209773    
0.00755636374958    
-0.0869529429792    
0.00415537887958    
-0.0919257001957    
-0.0332442126757    
-0.118127479375     
-0.0789039538559    
-0.150203007708     
-0.128441946535     
-0.168990502116     
-0.168056995164     
-0.149174603088     
-0.162182256119     
-0.0510417066894    
-0.0326404111123    
0.348480028416      
0.396191806676      
0.107202470009      
0.0019019609235     
-0.286475907444     
-0.327953634963     
-0.281650570194     
-0.289036464645     
-0.2318963955       
-0.202337339816     
-0.174799183536     
-0.111210304468     
-0.112776800999     
-0.0257230099722    
-0.0621321580809    
0.0515110121488     
-0.0384058279874    
0.117569868897      
0.0698070620324     
0.137854882186      
0.3082630375        
0.274183455956      
0.16932227509       
-0.0083426575764    
-0.0113433743297    
0.0399996904594     
-0.0365943935454    
0.0654886912141     
-0.0381999685888    
-0.00126516313347   
-0.0644350129501    
-0.0646573835324    
-0.107580559154     
-0.12126706298      
-0.15143312634      
-0.164959201846     
-0.16265149287      
-0.168461220744     
-0.0692944661407    
-0.0443096888768    
0.345739908283      
0.392316077424      
0.107978227706      
0.0294549266131     
-0.293757857887     
-0.30447494385      
-0.273078368515     
-0.261511699385     
-0.200756018231     
-0.175628734699     
-0.117932109026     
-0.0881295989779    
-0.0447795061065    
-0.00295650929795   
0.00810036821738    
0.0823733361007     
0.0291487251174     
0.160235520708      
0.0709640413392     
0.137103991775      
0.223810517836      
0.205915750794      
0.0895447514286     
0.106734556845      
0.0224559007497     
0.0891389054504     
-0.0129121976815    
-0.011448782148     
-0.0605120771858    
-0.0512814960323    
-0.0962814794266    
-0.0802316395212    
-0.129109377786     
-0.114144564753     
-0.159739543143     
-0.138309430943     
-0.173505345067     
-0.121603547418     
-0.105222956411     
-0.0404939780321    
0.349718327663      
0.391948998055      
0.210507678008      
0.121468388548      
-0.175137627214     
-0.156067224366     
-0.161053707227     
-0.152048409562     
-0.107005224083     
-0.134101038744     
-0.0443055200493    
-0.0971051361734    
0.0104337994873     
-0.0549281869929    
0.0629908716229     
-0.00457381422844   
0.13536863597       
0.0983759626965     
0.149909731106      
0.178864896524      
0.153994395746      
0.172745296217      
-0.0699140133452    
-0.184620729005     
-0.160672536344     
-0.164742650331     
-0.147199375195     
-0.162807149845     
-0.141452193189     
-0.168769183408     
-0.148365228455     
-0.179730982557     
-0.169505038549     
-0.192862799896     
-0.202322077233     
-0.19337657106      
-0.230933675302     
-0.12713444466      
-0.162685301956     
0.531706896423      
-0.0829362573694    
-0.227457248326     
-0.124200292203     
-0.185845187337     
-0.111688097869     
-0.176244129886     
-0.126739862091     
-0.179184369028     
-0.144513526839     
-0.189000769956     
-0.172581350251     
-0.201191165456     
-0.212612262826     
-0.204411413523     
-0.260511067047     
-0.180063577473     
-0.328830047591     
0.503413120838      
-0.0819384441628    
-0.223772052533     
-0.129902236405     
-0.179272583558     
-0.112150541343     
-0.169239383991     
-0.12549717165      
-0.173295317432     
-0.142517978867     
-0.184801473655     
-0.170008511307     
-0.199146996791     
-0.208932323757     
-0.204945909354     
-0.253721163163     
-0.185682355562     
-0.328765809228     
0.470410314517      
-0.0878797626547    
-0.241430263444     
-0.11209571095      
-0.170396569373     