# vtk DataFile Version 3.0
PyPan results file. Generated by PyPan, USU AeroLab (c) 2020.
ASCII
DATASET POLYDATA
POINTS 492 float
-4.75               -4.0                0.0                 
-4.75               4.0                 0.0                 
-4.7255282402       -4.00441503525      -0.00143460487016   
-4.7255282402       -4.00441503525      0.00143460487016    
-4.7255282402       -4.00272893906      -0.00375584419817   
-4.7255282402       -4.00272893906      0.00375584419817    
-4.7255282402       -4.0                -0.00464247865602   
-4.7255282402       -4.0                0.00464247865602    
-4.7255282402       4.0                 -0.00464247865602   
-4.7255282402       4.0                 0.00464247865602    
-4.7255282402       4.00272893906       -0.00375584419817   
-4.7255282402       4.00272893906       0.00375584419817    
-4.7255282402       4.00441503525       -0.00143460487016   
-4.7255282402       4.00441503525       0.00143460487016    
-4.6545085907       -4.01323318481      -0.00429976172745   
-4.6545085907       -4.01323318481      0.00429976172745    
-4.6545085907       -4.00817871094      -0.0112569229677    
-4.6545085907       -4.00817871094      0.0112569229677     
-4.6545085907       -4.0                -0.0139143215492    
-4.6545085907       -4.0                0.0139143215492     
-4.6545085907       4.0                 -0.0139143215492    
-4.6545085907       4.0                 0.0139143215492     
-4.6545085907       4.00817871094       -0.0112569229677    
-4.6545085907       4.00817871094       0.0112569229677     
-4.6545085907       4.01323318481       -0.00429976172745   
-4.6545085907       4.01323318481       0.00429976172745    
-4.65211296082      -3.90211296082      0.0                 
-4.65211296082      3.90211296082       0.0                 
-4.62764120102      -3.90211296082      -0.00464247865602   
-4.62764120102      -3.90211296082      0.00464247865602    
-4.62764120102      3.90211296082       -0.00464247865602   
-4.62764120102      3.90211296082       0.00464247865602    
-4.55662155151      -3.90211296082      -0.0139143215492    
-4.55662155151      -3.90211296082      0.0139143215492     
-4.55662155151      3.90211296082       -0.0139143215492    
-4.55662155151      3.90211296082       0.0139143215492     
-4.54389286041      -4.02558851242      -0.00831415317953   
-4.54389286041      -4.02558851242      0.00831415317953    
-4.54389286041      -4.01581430435      -0.0217667371035    
-4.54389286041      -4.01581430435      0.0217667371035     
-4.54389286041      -4.0                -0.0269051659852    
-4.54389286041      -4.0                0.0269051659852     
-4.54389286041      4.0                 -0.0269051659852    
-4.54389286041      4.0                 0.0269051659852     
-4.54389286041      4.01581430435       -0.0217667371035    
-4.54389286041      4.01581430435       0.0217667371035     
-4.54389286041      4.02558851242       -0.00831415317953   
-4.54389286041      4.02558851242       0.00831415317953    
-4.44600582123      -3.90211296082      -0.0269051659852    
-4.44600582123      -3.90211296082      0.0269051659852     
-4.44600582123      3.90211296082       -0.0269051659852    
-4.44600582123      3.90211296082       0.0269051659852     
-4.4045085907       -4.03891468048      -0.0126441745088    
-4.4045085907       -4.03891468048      0.0126441745088     
-4.4045085907       -4.02405071259      -0.0331028774381    
-4.4045085907       -4.02405071259      0.0331028774381     
-4.4045085907       -4.0                -0.0409174077213    
-4.4045085907       -4.0                0.0409174077213     
-4.4045085907       4.0                 -0.0409174077213    
-4.4045085907       4.0                 0.0409174077213     
-4.4045085907       4.02405071259       -0.0331028774381    
-4.4045085907       4.02405071259       0.0331028774381     
-4.4045085907       4.03891468048       -0.0126441745088    
-4.4045085907       4.03891468048       0.0126441745088     
-4.36803388596      -3.61803388596      0.0                 
-4.36803388596      3.61803388596       0.0                 
-4.34356212616      -3.61803388596      -0.00464247865602   
-4.34356212616      -3.61803388596      0.00464247865602    
-4.34356212616      3.61803388596       -0.00464247865602   
-4.34356212616      3.61803388596       0.00464247865602    
-4.30662155151      -3.90211296082      -0.0409174077213    
-4.30662155151      -3.90211296082      0.0409174077213     
-4.30662155151      3.90211296082       -0.0409174077213    
-4.30662155151      3.90211296082       0.0409174077213     
-4.27254247665      -3.61803388596      -0.0139143215492    
-4.27254247665      -3.61803388596      0.0139143215492     
-4.27254247665      3.61803388596       -0.0139143215492    
-4.27254247665      3.61803388596       0.0139143215492     
-4.25               -4.05034923553      -0.0163594372571    
-4.25               -4.05034923553      0.0163594372571     
-4.25               -4.03111743927      -0.0428295619786    
-4.25               -4.03111743927      0.0428295619786     
-4.25               -4.0                -0.0529402531683    
-4.25               -4.0                0.0529402531683     
-4.25               4.0                 -0.0529402531683    
-4.25               4.0                 0.0529402531683     
-4.25               4.03111743927       -0.0428295619786    
-4.25               4.03111743927       0.0428295619786     
-4.25               4.05034923553       -0.0163594372571    
-4.25               4.05034923553       0.0163594372571     
-4.16192674637      -3.61803388596      -0.0269051659852    
-4.16192674637      -3.61803388596      0.0269051659852     
-4.16192674637      3.61803388596       -0.0269051659852    
-4.16192674637      3.61803388596       0.0269051659852     
-4.15211296082      -3.90211296082      -0.0529402531683    
-4.15211296082      -3.90211296082      0.0529402531683     
-4.15211296082      3.90211296082       -0.0529402531683    
-4.15211296082      3.90211296082       0.0529402531683     
-4.0954914093       -4.05665874481      -0.0184096004814    
-4.0954914093       -4.05665874481      0.0184096004814     
-4.0954914093       -4.03501701355      -0.0481969565153    
-4.0954914093       -4.03501701355      0.0481969565153     
-4.0954914093       -4.0                -0.0595747157931    
-4.0954914093       -4.0                0.0595747157931     
-4.0954914093       4.0                 -0.0595747157931    
-4.0954914093       4.0                 0.0595747157931     
-4.0954914093       4.03501701355       -0.0481969565153    
-4.0954914093       4.03501701355       0.0481969565153     
-4.0954914093       4.05665874481       -0.0184096004814    
-4.0954914093       4.05665874481       0.0184096004814     
-4.02254247665      -3.61803388596      -0.0409174077213    
-4.02254247665      -3.61803388596      0.0409174077213     
-4.02254247665      3.61803388596       -0.0409174077213    
-4.02254247665      3.61803388596       0.0409174077213     
-3.99760460854      -3.90211296082      -0.0595747157931    
-3.99760460854      -3.90211296082      0.0595747157931     
-3.99760460854      3.90211296082       -0.0595747157931    
-3.99760460854      3.90211296082       0.0595747157931     
-3.95610737801      -4.05488920212      -0.0178346466273    
-3.95610737801      -4.05488920212      0.0178346466273     
-3.95610737801      -4.03392362595      -0.046691711992     
-3.95610737801      -4.03392362595      0.046691711992      
-3.95610737801      -4.0                -0.0577141307294    
-3.95610737801      -4.0                0.0577141307294     
-3.95610737801      4.0                 -0.0577141307294    
-3.95610737801      4.0                 0.0577141307294     
-3.95610737801      4.03392362595       -0.046691711992     
-3.95610737801      4.03392362595       0.046691711992      
-3.95610737801      4.05488920212       -0.0178346466273    
-3.95610737801      4.05488920212       0.0178346466273     
-3.92557048798      -3.17557048798      0.0                 
-3.92557048798      3.17557048798       0.0                 
-3.90109872818      -3.17557048798      -0.00464247865602   
-3.90109872818      -3.17557048798      0.00464247865602    
-3.90109872818      3.17557048798       -0.00464247865602   
-3.90109872818      3.17557048798       0.00464247865602    
-3.86803388596      -3.61803388596      -0.0529402531683    
-3.86803388596      -3.61803388596      0.0529402531683     
-3.86803388596      3.61803388596       -0.0529402531683    
-3.86803388596      3.61803388596       0.0529402531683     
-3.85822033882      -3.90211296082      -0.0577141307294    
-3.85822033882      -3.90211296082      0.0577141307294     
-3.85822033882      3.90211296082       -0.0577141307294    
-3.85822033882      3.90211296082       0.0577141307294     
-3.8454914093       -4.0437951088       -0.0142299029976    
-3.8454914093       -4.0437951088       0.0142299029976     
-3.8454914093       -4.02706670761      -0.037254370749     
-3.8454914093       -4.02706670761      0.037254370749      
-3.8454914093       -4.0                -0.0460489317775    
-3.8454914093       -4.0                0.0460489317775     
-3.8454914093       4.0                 -0.0460489317775    
-3.8454914093       4.0                 0.0460489317775     
-3.8454914093       4.02706670761       -0.037254370749     
-3.8454914093       4.02706670761       0.037254370749      
-3.8454914093       4.0437951088        -0.0142299029976    
-3.8454914093       4.0437951088        0.0142299029976     
-3.83007907867      -3.17557048798      -0.0139143215492    
-3.83007907867      -3.17557048798      0.0139143215492     
-3.83007907867      3.17557048798       -0.0139143215492    
-3.83007907867      3.17557048798       0.0139143215492     
-3.7744717598       -4.0246257782       -0.00800147373229   
[...]
CELL_DATA 980
SCALARS pressure_coefficient float 1
LOOKUP_TABLE default
-2.74642541146      
-2.5387329707       
-0.805128623095     
-0.64328680243      
-0.407818218323     
-0.277920602435     
-0.205570176462     
-0.15294079828      
-0.105144231809     
-0.0986386323095    
-0.0100531092913    
0.00248760578592    
0.0666090669373     
0.115189254536      
0.154158119425      
0.237439988724      
0.414634571812      
0.438750837492      
0.527815669896      
0.485640187626      
-0.556702027936     
-0.743004521791     
-0.587652539601     
-0.706551634507     
-0.514462721205     
-0.552027982684     
-0.289873180337     
-0.31762222251      
-0.125063466574     
-0.11637811732      
-0.0405408808209    
-0.0164358782867    
0.135161825446      
0.163179130328      
0.379058879963      
0.446794552356      
0.670522280528      
0.790308698547      
0.302828427391      
-0.776099330592     
-1.90921844406      
-1.71059848099      
-0.61957017146      
-0.582285814146     
-0.340323846447     
-0.295321534048     
-0.212063681386     
-0.16850544809      
-0.13489044526      
-0.0871262798172    
-0.0724139349675    
-0.0222876278333    
0.00540706366776    
0.0504756476187     
0.150089324228      
0.151869482542      
0.340855944887      
0.356960468668      
0.395854031448      
0.357363663464      
-0.927836780226     
-1.25630652628      
-0.87439503803      
-1.06834113684      
-0.539857096789     
-0.674320509472     
-0.334382779258     
-0.389089747812     
-0.141849524051     
-0.172568710297     
0.0336716812974     
0.0246829491214     
0.187167516191      
0.209769510031      
0.328572314943      
0.379687265569      
0.466339452803      
0.510921403797      
0.387989243259      
0.170830759172      
-1.7422574225       
-1.45444536619      
-0.558470314611     
-0.465693536619     
-0.308606028754     
-0.252039909057     
-0.207478040004     
-0.175813436359     
-0.149992980171     
-0.124017213789     
-0.100424514094     
-0.0764641032788    
-0.028970618924     
-0.0128725880053    
0.0917136275172     
0.113242686281      
0.29516806882       
0.357455123967      
0.41359061419       
0.315156143687      
-0.908667335955     
-1.27988975351      
-0.872720944215     
-1.0177777342       
-0.532446694022     
-0.62461362182      
-0.29869747822      
-0.339010480935     
-0.123113376676     
-0.121221839108     
0.0248719778951     
0.0483649024517     
0.156219520322      
0.195195387623      
0.289772088688      
0.341932850432      
0.427482191704      
0.45534595752       
0.42975249637       
0.337513936443      
-1.63431206893      
-1.37831601118      
-0.539285711723     
-0.452231094189     
-0.309416079294     
-0.255284485701     
-0.208249816416     
-0.179339844584     
-0.154170599493     
-0.13349305467      
-0.106980533655     
-0.0935087004252    
-0.039749690793     
-0.0308126751606    
0.0734738368037     
0.0988471490267     
0.287010641413      
0.344374913468      
0.435047795973      
0.353621389675      
-0.863539088827     
-1.12534242464      
-0.859659120045     
-0.92186719086      
-0.534081285632     
-0.560619410548     
-0.303145158023     
-0.303732005946     
-0.131484689946     
-0.106640807684     
0.0116707762012     
0.0502995519643     
0.140559794119      
0.187415066282      
0.272249226953      
0.328255163704      
0.41709874895       
0.443966129077      
0.431966674418      
0.345817650921      
-1.4499298399       
-1.31050407259      
-0.52001110569      
-0.453243868518     
-0.329546547192     
-0.270786052696     
-0.216957503995     
-0.187692089425     
-0.160358141179     
-0.139974473158     
-0.109681495556     
-0.0992893260246    
-0.0389215985419    
-0.0357348685143    
0.0758192956805     
0.0927658566245     
0.28988601413       
0.334474029473      
0.431083420578      
0.369675684249      
-0.86412648838      
-1.03660444361      
-0.861940587969     
-0.873643620269     
-0.538869065646     
-0.532809846052     
-0.311709107837     
-0.28980111017      
-0.143977249296     
-0.10184480151      
-0.00491384848205   
0.0499223875488     
0.120851454291      
0.182751736678      
0.24605076167       
0.318328428149      
0.405914730881      
0.439664789726      
0.411540003413      
0.317760514122      
-1.29816988091      
-1.2860621494       
-0.498649945165     
-0.439888409961     
-0.339436024389     
-0.258846580242     
-0.220605632385     
-0.178007155416     
-0.162462818769     
-0.132205478683     
-0.109154215252     
-0.0940350177232    
-0.0346390668712    
-0.0331039947122    
0.0813878191677     
0.0923888382637     
0.292020584542      
0.330002735069      
0.417063697652      
0.366542297404      
-0.876758612088     
-1.01824052008      
-0.864526374731     
-0.860459523618     
-0.540005096127     
-0.523870094346     
-0.314978139655     
-0.283080403651     
-0.151504140778     
-0.0963765397781    
-0.0161056649104    
0.0540823654889     
0.106397681043      
0.184076205799      
0.2251307676        
0.315625936945      
0.392914477942      
0.431244587701      
0.392093484403      
0.311765264232      
-1.16929981518      
-1.26326827269      
-0.472421252981     
-0.417784832684     
-0.335833684739     
-0.234258233688     
-0.220190065678     
-0.160125294311     
-0.163793306683     
-0.118932551793     
-0.111686230578     
-0.0853111112452    
-0.0361610671829    
-0.0294489767928    
0.0816443420098     
0.0917875772083     
0.288597039424      
0.326768046449      
0.409561543164      
0.363523029334      
-0.868328129797     
-1.01870246345      
-0.854093843189     
-0.85749458036      
-0.532368909901     
-0.520007169362     
-0.310612059636     
-0.27718220137      
-0.151694503082     
-0.0893193307222    
-0.0184684558956    
0.0610674358989     
0.100958034312      
0.189623759766      
0.21429879184       
0.317375370366      
0.379955667663      
0.422053559274      
0.38835604978       
0.319240931542      
-0.792851806622     
-1.0628598434       
-0.389406345388     
-0.372264604439     
-0.323443686503     
-0.217006458185     
-0.215281701913     
-0.148736989827     
-0.166437963375     
-0.116246327822     
-0.12373723899      
-0.0865094632749    
-0.0533814674358    
-0.0336121573941    
0.0733800561053     
0.084868477403      
0.281160718156      
0.320032394481      
0.41200640927       
0.372399976798      
-0.832027107372     
-0.988520508669     
-0.829316832363     
-0.838829961326     
-0.517240285295     
-0.506378945107     
-0.306991258199     
-0.266077359132     
-0.150308695334     
-0.0818651063909    
-0.0178252393089    
0.0670620703993     
0.0927748886807     
0.195654881992      
0.188050697432      
0.314129831908      
0.353210328119      
0.41361986798       
0.408032883871      
0.31780585792       
-0.602885730378     
-0.863044779788     
-0.302389500561     
-0.262251286702     
-0.220372809664     
-0.122628223282     
-0.142515227229     
-0.108904400749     
-0.114552908556     
-0.105478807838     
-0.0979304141583    
-0.0891695501678    
-0.0621648417277    
-0.0421160626453    
0.0376019947471     
0.0696459322836     
0.254193010061      
0.30730258923       
0.426068363109      
0.39762577493       
-0.764192156359     
-0.906364193773     
-0.791534901891     
-0.786786761946     
-0.475247789966     
-0.458404501895     
-0.247709393652     
-0.222229665829     
-0.0728248230904    
-0.0432814647992    
0.0581844136245     
0.102873471256      
0.155669483247      
0.233900780218      
0.22783189465       
0.351353294957      
0.328752511168      
0.406587751177      
0.471640235497      
0.42255773786       
-0.322719803377     
-0.391283344751     
-0.156458150974     
-0.133254820306     
-0.141184824698     
-0.157929764071     
-0.147086414749     
-0.137335737531     
-0.144101900965     
-0.119731297476     
-0.133102121029     
-0.100447739978     
-0.103475584812     
-0.0499217140651    
-0.0254223231227    
0.0736045457986     
0.193880948466      
0.292535060954      
0.467629243816      
0.462659416272      
-0.50422871911      
-0.694723628703     
-0.588907069107     
-0.560703054696     
-0.315004998827     
-0.305638657963     
-0.139258510409     
-0.163918752246     
-0.00876847111285   
-0.0523012997943    
0.0892967385281     
0.0423615440319     
0.17706044288       
0.139808701649      
0.293172630908      
0.301261976947      
0.375602152208      
0.464805888754      
0.457235823138      
0.539768770736      
-0.271719591287     
-0.385946872388     
-0.256283600258     
-0.352353093041     
-0.237459031474     
-0.3289571112       
-0.226789033458     
-0.302748350649     
-0.21989232446      
-0.278352207794     
-0.217784013678     
-0.248607750114     
-0.211468523465     
-0.18628641718      
-0.163740765084     
0.0111175885109     
0.0911834347201     
0.840323693076      
-0.33967027232      
-0.349162459182     
-0.494606582414     
-0.355094309569     
-0.38764496919      
-0.360744565167     
-0.355597716255     
-0.367887517114     
-0.341730977757     
-0.372422712009     
-0.346170371438     
-0.375953957455     
-0.368208838975     
-0.371913277767     
-0.4050372861       
-0.342782209397     
-0.441052089117     
0.52252833302       
-0.38183518363      
-0.304679351004     
-0.494007785138     
-0.314001112261     
-0.391656673432     
-0.335098244939     
-0.363686266305     
-0.357594354894     
-0.355303592967     
-0.379485720657     
-0.368312013783     
-0.405499115864     
-0.403213122079     
-0.432257963798     
-0.45744112393      
-0.45541522476      
-0.530195533207     
0.0927948418399     
-0.24899035681      
-0.159968185134     
-0.322021274662     
-0.164678000185     
-0.251054609752     
-0.198197102739     
-0.2462759243       
-0.236390267759     
-0.256368531089     
-0.278958454272     
-0.287367574773     
-0.333224867411     
-0.342632799726     
-0.399541044167     
-0.422195181161     
-0.495802769528     
-0.565829374658     
-0.290414921951     
0.0120637060061     
-0.0345009320399    
-0.228768266058     
-0.013716983931     
-0.169862912109     
-0.0485114771906    
-0.160248588664     
-0.101697283615     
-0.173777215868     
-0.161566196191     
-0.216385294766     
-0.23728592913      
-0.297545634065     
-0.334360172687     
-0.429018568059     
-0.470853172909     
-0.651085065911     
-0.398080207555     
-2.74643916035      
-2.53873476353      
-0.805128961111     
-0.643291882593     
-0.407818851634     
-0.277921545903     
-0.205570006902     
-0.152940703517     
-0.105143757523     
-0.0986383059145    
-0.010053233865     
0.00248720197346    
0.0666090067454     
0.115188634621      
0.154158485161      
0.23743943915       
0.414634160059      
0.438750931587      
0.527816778992      
0.485641704898      
-0.556702254462     
-0.743005013954     
-0.58765443491      
-0.706553539256     
-0.514462708816     
-0.552028787147     
-0.28987348848      
-0.317623257839     
-0.125063653569     
-0.116379337492     
-0.0405404008399    
-0.0164365993802    
0.13516187607       
0.163178221042      
0.379057484261      
0.446791711929      
0.670521107631      
0.790305853206      
0.302829406495      
-0.776080050758     
-1.90922370427      
-1.71060222987      
-0.619571603184     
-0.582289320342     
-0.340324509614     
-0.295325220078     
-0.212064417071     
-0.168507979466     
-0.134891127545     
-0.0871279388032    
-0.0724143179975    
-0.0222887030599    
0.00540654610287    
0.0504748592283     
0.150088321172      
0.151869344378      
0.340855662021      
0.356961008808      
0.395855893549      
0.357365303182      
-0.927837760295     
-1.25630373546      
-0.874396467751     
-1.06833959414      
-0.539858637714     
-0.674319939267     
-0.334383343592     
-0.389089831838     
-0.141849968893     
-0.172569147555     
0.0336711532016     
0.0246821811615     
0.187167195453      
0.209768689739      
0.328572620778      
0.379687177737      
0.466340553732      
0.510922868798      
0.387990753735      
0.170827674093      
-1.74226168666      
-1.45444599219      
-0.558471881486     
-0.46569575915      
-0.308606013001     
-0.252042225171     
-0.207478141234     
-0.175814924936     
-0.14999301217      
-0.124018292756     
-0.100424640533     
-0.0764647391075    
-0.028971090813     
-0.0128729773612    
0.0917130698262     
0.113242579879      
0.295168174942      
0.357455193929      
0.413592117471      
0.315157932238      
-0.908665941605     
-1.27988480768      
-0.872723012607     
-1.0177761908       
-0.532448103048     
-0.624612616616     
-0.298698520359     
-0.339010276382     
-0.12311394296      
-0.121222222635     
0.0248717911574     
0.0483645667794     
0.1562198393        
0.195195200621      
0.289772680798      
0.341932701533      
0.427483194327      
0.455347153451      
0.429753775812      
0.337512716229      
-1.63431459351      
-1.37831546418      
-0.53928712088      
-0.452233102718     
-0.309416564299     
-0.255286719272     
-0.208249927707     
-0.179341211623     
-0.154170670798     
-0.133494018888     
-0.10698049439      
-0.0935091626807    
-0.0397498599177    
-0.0308128924838    
0.0734737114782     
0.0988470893463     
0.287010923478      
0.34437490065       
0.435048644103      
0.353622809755      
-0.863541939641     
-1.12534078366      
-0.859659839878     
-0.921865732435     
-0.534081530627     
-0.560618448362     
-0.303145833719     
-0.303731882498     
-0.131485236525     
-0.106641149522     
0.011670684068      
0.0502992552111     
0.140559880788      
0.187414851466      
0.2722492817        
0.328254646046      
0.417099475437      
0.443967182977      
0.431967241718      
0.345816322028      
-1.44993079802      
-1.31050162565      
-0.520011209637     
-0.453244684071     
-0.329546301174     
-0.270787777157     
-0.216957715477     
-0.187693098265     
-0.160358083079     
-0.13997518567      
-0.109681387922     
-0.0992895842694    
-0.0389216356716    
-0.0357350944548    
0.0758193624584     
0.0927657261581     
0.289886478344      
0.334474169629      
0.4310837237        
0.369676176478      
-0.864127336837     
-1.0366033524       
-0.86193914383      
-0.873641321642     
-0.538869235224     
-0.532809462438     
-0.311709441339     
-0.289801169547     
-0.143977606057     
-0.10184524649      
-0.00491383167898   
0.0499221692706     
0.120851816291      
0.182751626001      
0.246051158763      
0.318328447009      
0.405915405117      
0.439665418214      
0.411540427699      
0.31775930391       
-1.29816913283      
-1.28605944317      
-0.498655099058     
-0.439891607883     
-0.339439424115     
-0.25884857162      
-0.220605742693     
-0.178007975908     
-0.162462747474     
-0.132205930939     
-0.109154082844     
-0.094035117249     
-0.0346392414866    
-0.0331040769411    
0.0813878594423     
0.0923887000316     
0.29202074249       
0.330002858651      
0.417064226759      
0.366542144222      
-0.876757499021     
-1.01823996636      
-0.864525290119     
-0.860459224705     
-0.540005618267     
-0.523869578779     
-0.314978501698     
-0.283080564027     
-0.151504712235     
-0.0963770818486    
-0.016106254829     
0.0540819677567     
0.106397628209      
0.184075996904      
0.225130606447      
0.315626101377      
0.392913633342      
0.4312449706        
0.392092838107      
0.311763541787      
-1.1692811216       
-1.26326632608      
-0.472422997387     
-0.417785322409     
-0.335834316649     
-0.234257722764     
-0.220189550445     
-0.160124850565     
-0.163792647968     
-0.118932177179     
-0.111685352181     
-0.0853106976277    
-0.0361602956654    
-0.0294489070957    
0.0816445432533     
0.0917877475142     
0.288598216503      
0.326768078182      
0.409560674313      
0.363520916368      
-0.868338407211     
-1.01871383055      
-0.854095280421     
-0.857491849015     
-0.532368690702     
-0.520006977406     
-0.310612100768     
-0.277182179549     
-0.151695033559     
-0.0893196441532    
-0.0184681816945    
0.0610677194301     
0.100957776588      
0.189623786556      
0.214299307215      
0.317376234355      
0.379956085862      
0.422054510761      
0.388356714168      
0.319238937082      
-0.792857060817     
-1.06286449168      
-0.389405858521     
-0.372264145671     
-0.323442608971     
-0.217006981692     
-0.215282254432     
-0.148737859592     
-0.166438336773     
-0.116246198872     
-0.123736597401     
-0.0865090200469    
-0.0533807801364    
-0.0336118445803    
0.0733798732503     
0.0848683340388     
0.281160473399      
0.320032557604      
0.412005731013      
0.372399913574      
-0.832033307519     
-0.988529303374     
-0.829314362388     
-0.838831279127     
-0.51723973865      
-0.506379169151     
-0.306992077006     
-0.266077983859     
-0.150309773034     
-0.0818657043474    
-0.0178261291357    
0.0670617172827     
0.0927746157929     
0.195655245614      
0.188050221508      
0.314129079866      
0.353211290424      
0.413620156481      
0.408031363111      
0.317804728432      
-0.602905392426     
-0.863061183124     
-0.302395443812     
-0.262251188413     
-0.220374155329     
-0.122628224561     
-0.142515423258     
-0.10890427822      
-0.114552694255     
-0.105478547991     
-0.097929753204     
-0.0891683090424    
-0.0621633899041    
-0.0421148623808    
0.0376018764983     
0.0696458947633     
0.254193751553      
0.307302721211      
0.426067934384      
0.397625923384      
-0.764200598001     
-0.906375076402     
-0.791537110282     
-0.786789200654     
-0.475248617506     
-0.458404587695     
-0.247710500357     
-0.222230232703     
-0.0728255406033    
-0.0432824286954    
0.0581851299866     
0.102874102519      
0.155671913106      
0.233902323777      
0.227835333887      
0.351354175421      
0.328754809612      
0.406587055602      
0.471640076779      
0.422557252819      
-0.322734605595     
-0.391295694137     
-0.156462165393     
-0.133260745336     
-0.141187140217     
-0.157932246119     
-0.147085750217     
-0.137336900516     
-0.144100718201     
-0.119732088406     
-0.133101903285     
-0.100447596423     
-0.103474923526     
-0.0499207586649    
-0.0254215113501    
0.0736058097404     
0.193884793834      
0.292536840009      
0.467629820314      
0.462659940397      
-0.504234236584     
-0.694728058578     
-0.588909705693     
-0.56070663032      
-0.31500550304      
-0.305638553241     
-0.139258251984     
-0.163919144259     
-0.0087671899231    
-0.0523014901372    
0.0892961587052     
0.0423604116357     
0.177058800272      
0.139808071577      
0.293171457816      
0.301260806461      
0.375603532542      
0.464807178072      
0.457239400691      
0.539772760072      
-0.271723657534     
-0.38592372734      
-0.256286713235     
-0.352370389918     
-0.237461942496     
-0.328955392818     
-0.226788010819     
-0.302747694846     
-0.219891992889     
-0.278351630533     
-0.217783764908     
-0.248606527607     
-0.21146890556      
-0.186289210745     
-0.163738831215     
0.011111578032      
0.0911856933263     
0.840315813327      
-0.339697961777     
-0.349116112472     
-0.494617468207     
-0.355119659348     
-0.387660803746     
-0.360749684252     
-0.355605231187     
-0.36788249899      
-0.341732810612     
-0.372421821438     
-0.346172838296     
-0.375955442293     
-0.368213754694     
-0.371905073491     
-0.405042539778     
-0.342783526235     
-0.441045050553     
0.522526835696      
-0.381871620822     
-0.304714273755     
-0.494018018412     
-0.314005740593     
-0.391666060027     
-0.335111299888     
-0.363691452274     
-0.357601463364     
-0.35530513497      
-0.379486643584     
-0.368312603839     
-0.40549958929      
-0.403216383694     
-0.432261209321     
-0.457445773446     
-0.45542929597      
-0.530203656973     
0.0927767720012     
-0.248998152212     
-0.15994483145      
-0.322035674057     
-0.164676432679     