# vtk DataFile Version 3.0
PyPan results file. Generated by PyPan, USU AeroLab (c) 2020.
ASCII
DATASET POLYDATA
POINTS 492 float
-4.75               -4.0                0.0                 
-4.75               4.0                 0.0                 
-4.7255282402       -4.00441503525      -0.00143460487016   
-4.7255282402       -4.00441503525      0.00143460487016    
-4.7255282402       -4.00272893906      -0.00375584419817   
-4.7255282402       -4.00272893906      0.00375584419817    
-4.7255282402       -4.0                -0.00464247865602   
-4.7255282402       -4.0                0.00464247865602    
-4.7255282402       4.0                 -0.00464247865602   
-4.7255282402       4.0                 0.00464247865602    
-4.7255282402       4.00272893906       -0.00375584419817   
-4.7255282402       4.00272893906       0.00375584419817    
-4.7255282402       4.00441503525       -0.00143460487016   
-4.7255282402       4.00441503525       0.00143460487016    
-4.6545085907       -4.01323318481      -0.00429976172745   
-4.6545085907       -4.01323318481      0.00429976172745    
-4.6545085907       -4.00817871094      -0.0112569229677    
-4.6545085907       -4.00817871094      0.0112569229677     
-4.6545085907       -4.0                -0.0139143215492    
-4.6545085907       -4.0                0.0139143215492     
-4.6545085907       4.0                 -0.0139143215492    
-4.6545085907       4.0                 0.0139143215492     
-4.6545085907       4.00817871094       -0.0112569229677    
-4.6545085907       4.00817871094       0.0112569229677     
-4.6545085907       4.01323318481       -0.00429976172745   
-4.6545085907       4.01323318481       0.00429976172745    
-4.65211296082      -3.90211296082      0.0                 
-4.65211296082      3.90211296082       0.0                 
-4.62764120102      -3.90211296082      -0.00464247865602   
-4.62764120102      -3.90211296082      0.00464247865602    
-4.62764120102      3.90211296082       -0.00464247865602   
-4.62764120102      3.90211296082       0.00464247865602    
-4.55662155151      -3.90211296082      -0.0139143215492    
-4.55662155151      -3.90211296082      0.0139143215492     
-4.55662155151      3.90211296082       -0.0139143215492    
-4.55662155151      3.90211296082       0.0139143215492     
-4.54389286041      -4.02558851242      -0.00831415317953   
-4.54389286041      -4.02558851242      0.00831415317953    
-4.54389286041      -4.01581430435      -0.0217667371035    
-4.54389286041      -4.01581430435      0.0217667371035     
-4.54389286041      -4.0                -0.0269051659852    
-4.54389286041      -4.0                0.0269051659852     
-4.54389286041      4.0                 -0.0269051659852    
-4.54389286041      4.0                 0.0269051659852     
-4.54389286041      4.01581430435       -0.0217667371035    
-4.54389286041      4.01581430435       0.0217667371035     
-4.54389286041      4.02558851242       -0.00831415317953   
-4.54389286041      4.02558851242       0.00831415317953    
-4.44600582123      -3.90211296082      -0.0269051659852    
-4.44600582123      -3.90211296082      0.0269051659852     
-4.44600582123      3.90211296082       -0.0269051659852    
-4.44600582123      3.90211296082       0.0269051659852     
-4.4045085907       -4.03891468048      -0.0126441745088    
-4.4045085907       -4.03891468048      0.0126441745088     
-4.4045085907       -4.02405071259      -0.0331028774381    
-4.4045085907       -4.02405071259      0.0331028774381     
-4.4045085907       -4.0                -0.0409174077213    
-4.4045085907       -4.0                0.0409174077213     
-4.4045085907       4.0                 -0.0409174077213    
-4.4045085907       4.0                 0.0409174077213     
-4.4045085907       4.02405071259       -0.0331028774381    
-4.4045085907       4.02405071259       0.0331028774381     
-4.4045085907       4.03891468048       -0.0126441745088    
-4.4045085907       4.03891468048       0.0126441745088     
-4.36803388596      -3.61803388596      0.0                 
-4.36803388596      3.61803388596       0.0                 
-4.34356212616      -3.61803388596      -0.00464247865602   
-4.34356212616      -3.61803388596      0.00464247865602    
-4.34356212616      3.61803388596       -0.00464247865602   
-4.34356212616      3.61803388596       0.00464247865602    
-4.30662155151      -3.90211296082      -0.0409174077213    
-4.30662155151      -3.90211296082      0.0409174077213     
-4.30662155151      3.90211296082       -0.0409174077213    
-4.30662155151      3.90211296082       0.0409174077213     
-4.27254247665      -3.61803388596      -0.0139143215492    
-4.27254247665      -3.61803388596      0.0139143215492     
-4.27254247665      3.61803388596       -0.0139143215492    
-4.27254247665      3.61803388596       0.0139143215492     
-4.25               -4.05034923553      -0.0163594372571    
-4.25               -4.05034923553      0.0163594372571     
-4.25               -4.03111743927      -0.0428295619786    
-4.25               -4.03111743927      0.0428295619786     
-4.25               -4.0                -0.0529402531683    
-4.25               -4.0                0.0529402531683     
-4.25               4.0                 -0.0529402531683    
-4.25               4.0                 0.0529402531683     
-4.25               4.03111743927       -0.0428295619786    
-4.25               4.03111743927       0.0428295619786     
-4.25               4.05034923553       -0.0163594372571    
-4.25               4.05034923553       0.0163594372571     
-4.16192674637      -3.61803388596      -0.0269051659852    
-4.16192674637      -3.61803388596      0.0269051659852     
-4.16192674637      3.61803388596       -0.0269051659852    
-4.16192674637      3.61803388596       0.0269051659852     
-4.15211296082      -3.90211296082      -0.0529402531683    
-4.15211296082      -3.90211296082      0.0529402531683     
-4.15211296082      3.90211296082       -0.0529402531683    
-4.15211296082      3.90211296082       0.0529402531683     
-4.0954914093       -4.05665874481      -0.0184096004814    
-4.0954914093       -4.05665874481      0.0184096004814     
-4.0954914093       -4.03501701355      -0.0481969565153    
-4.0954914093       -4.03501701355      0.0481969565153     
-4.0954914093       -4.0                -0.0595747157931    
-4.0954914093       -4.0                0.0595747157931     
-4.0954914093       4.0                 -0.0595747157931    
-4.0954914093       4.0                 0.0595747157931     
-4.0954914093       4.03501701355       -0.0481969565153    
-4.0954914093       4.03501701355       0.0481969565153     
-4.0954914093       4.05665874481       -0.0184096004814    
-4.0954914093       4.05665874481       0.0184096004814     
-4.02254247665      -3.61803388596      -0.0409174077213    
-4.02254247665      -3.61803388596      0.0409174077213     
-4.02254247665      3.61803388596       -0.0409174077213    
-4.02254247665      3.61803388596       0.0409174077213     
-3.99760460854      -3.90211296082      -0.0595747157931    
-3.99760460854      -3.90211296082      0.0595747157931     
-3.99760460854      3.90211296082       -0.0595747157931    
-3.99760460854      3.90211296082       0.0595747157931     
-3.95610737801      -4.05488920212      -0.0178346466273    
-3.95610737801      -4.05488920212      0.0178346466273     
-3.95610737801      -4.03392362595      -0.046691711992     
-3.95610737801      -4.03392362595      0.046691711992      
-3.95610737801      -4.0                -0.0577141307294    
-3.95610737801      -4.0                0.0577141307294     
-3.95610737801      4.0                 -0.0577141307294    
-3.95610737801      4.0                 0.0577141307294     
-3.95610737801      4.03392362595       -0.046691711992     
-3.95610737801      4.03392362595       0.046691711992      
-3.95610737801      4.05488920212       -0.0178346466273    
-3.95610737801      4.05488920212       0.0178346466273     
-3.92557048798      -3.17557048798      0.0                 
-3.92557048798      3.17557048798       0.0                 
-3.90109872818      -3.17557048798      -0.00464247865602   
-3.90109872818      -3.17557048798      0.00464247865602    
-3.90109872818      3.17557048798       -0.00464247865602   
-3.90109872818      3.17557048798       0.00464247865602    
-3.86803388596      -3.61803388596      -0.0529402531683    
-3.86803388596      -3.61803388596      0.0529402531683     
-3.86803388596      3.61803388596       -0.0529402531683    
-3.86803388596      3.61803388596       0.0529402531683     
-3.85822033882      -3.90211296082      -0.0577141307294    
-3.85822033882      -3.90211296082      0.0577141307294     
-3.85822033882      3.90211296082       -0.0577141307294    
-3.85822033882      3.90211296082       0.0577141307294     
-3.8454914093       -4.0437951088       -0.0142299029976    
-3.8454914093       -4.0437951088       0.0142299029976     
-3.8454914093       -4.02706670761      -0.037254370749     
-3.8454914093       -4.02706670761      0.037254370749      
-3.8454914093       -4.0                -0.0460489317775    
-3.8454914093       -4.0                0.0460489317775     
-3.8454914093       4.0                 -0.0460489317775    
-3.8454914093       4.0                 0.0460489317775     
-3.8454914093       4.02706670761       -0.037254370749     
-3.8454914093       4.02706670761       0.037254370749      
-3.8454914093       4.0437951088        -0.0142299029976    
-3.8454914093       4.0437951088        0.0142299029976     
-3.83007907867      -3.17557048798      -0.0139143215492    
-3.83007907867      -3.17557048798      0.0139143215492     
-3.83007907867      3.17557048798       -0.0139143215492    
-3.83007907867      3.17557048798       0.0139143215492     
-3.7744717598       -4.0246257782       -0.00800147373229   
[...]
CELL_DATA 980
SCALARS pressure_coefficient float 1
LOOKUP_TABLE default
-4.66887239594      
-4.21070995969      
-1.17543455968      
-0.935609793466     
-0.543503919137     
-0.350919583937     
-0.239302600663     
-0.148503142768     
-0.0824689908347    
-0.0498485696245    
0.0490148963659     
0.0759078395033     
0.158330942972      
0.214875280174      
0.282464073752      
0.364890698116      
0.552916722496      
0.55985551256       
0.417958528649      
0.352618633042      
-1.08310313882      
-1.19642368896      
-0.841503746318     
-0.926518989121     
-0.634773279812     
-0.662761091803     
-0.336408334549     
-0.362746278702     
-0.126044807148     
-0.114485280073     
-0.00686395040419   
0.0193874952347     
0.204937311199      
0.236996711511      
0.490362416265      
0.567601052195      
0.777670079863      
0.855288492453      
-0.344342012899     
-2.70432644758      
-3.32392400223      
-2.88612853979      
-0.937247196369     
-0.901742148371     
-0.473744918792     
-0.424233259936     
-0.263904954947     
-0.204597408457     
-0.136168135459     
-0.0694363554234    
-0.0314075909506    
0.035348617412      
0.0867256708792     
0.142705418545      
0.265915287486      
0.273445495393      
0.452736691914      
0.468483762182      
0.191390075733      
0.112671587118      
-1.63269651777      
-1.9125349479       
-1.19705493701      
-1.35621098314      
-0.670602509253     
-0.796191899399     
-0.376026976967     
-0.429627385533     
-0.127906280355     
-0.160292644972     
0.0870921248466     
0.0790878945387     
0.269928549368      
0.298213524239      
0.429347092519      
0.481282202791      
0.548897880585      
0.579010830798      
0.0322715442411     
-0.589088400073     
-3.03661131798      
-2.434752002        
-0.854031145853     
-0.731879840288     
-0.438560421396     
-0.376200841013     
-0.261030614411     
-0.224505615523     
-0.156100762984     
-0.122557059556     
-0.0657968889366    
-0.0324175955537    
0.0470372058075     
0.0715143597216     
0.206088336792      
0.232717228101      
0.413722178623      
0.460631581702      
0.208944956111      
0.0043253456041     
-1.63743715952      
-2.02877732386      
-1.20057942772      
-1.32300480472      
-0.653728956007     
-0.73692408728      
-0.327118106392     
-0.360931685569     
-0.100087329861     
-0.092085632497     
0.0808765424778     
0.109255103384      
0.235820419429      
0.276996864041      
0.385347858281      
0.433347802986      
0.510409683814      
0.532107880056      
0.157190332495      
-0.175650499431     
-2.89023969119      
-2.31587233138      
-0.828469680896     
-0.704234446574     
-0.43593420957      
-0.371061502488     
-0.259749478502     
-0.224404089692     
-0.159214789122     
-0.132685895427     
-0.0720778194933    
-0.0527004371674    
0.0358173947941     
0.0502693031343     
0.187639977728      
0.21722894382       
0.409281155892      
0.453420944989      
0.245197167172      
0.0640014584851     
-1.57641552629      
-1.85947749039      
-1.18214296672      
-1.21985136021      
-0.65254987448      
-0.667125003969     
-0.329038157828     
-0.322084914611     
-0.106861553366     
-0.0765160450416    
0.068551593869      
0.110120255082      
0.220775267653      
0.267481081103      
0.369236145986      
0.418934652104      
0.501100019947      
0.521142594451      
0.170536793746      
-0.129469275412     
-2.67473685915      
-2.2311249478       
-0.806232648581     
-0.700436040467     
-0.452964592686     
-0.382714538415     
-0.266484124719     
-0.230412512742     
-0.164032870778     
-0.137852594123     
-0.0742368626393    
-0.0579960116144    
0.0357831828497     
0.0452106903334     
0.188025958         
0.211012152861      
0.41029793811       
0.446890251536      
0.241925885138      
0.0991591427597     
-1.56836494071      
-1.74842797413      
-1.18095216703      
-1.16556529552      
-0.656055639364     
-0.637560094652     
-0.336501147419     
-0.307975066168     
-0.117568711048     
-0.0722033144399    
0.0544154799812     
0.109157932719      
0.20434034261       
0.262539128178      
0.349110456646      
0.41002638812       
0.492942019331      
0.515142113673      
0.140726494928      
-0.163759397011     
-2.48440205899      
-2.19087913075      
-0.780577888474     
-0.684103684579     
-0.461164034201     
-0.370827496131     
-0.269247850884     
-0.221436869192     
-0.165882772147     
-0.131252423578     
-0.0741827495173    
-0.0540117894394    
0.0386168694218     
0.0465962468263     
0.191235622571      
0.209452424853      
0.409257247344      
0.442205582001      
0.224926409701      
0.102752815339      
-1.57575659544      
-1.71802782733      
-1.1807255625       
-1.14809639518      
-0.656137862753     
-0.627069075621     
-0.339303706749     
-0.301014969979     
-0.12432575931      
-0.06734641613      
0.0445263649054     
0.112190647479      
0.191843497996      
0.262565194608      
0.332158621737      
0.405923716247      
0.482830915558      
0.506697945635      
0.117679972888      
-0.163677095083     
-2.27349717598      
-2.13341864278      
-0.742568810746     
-0.656757750241     
-0.457576381008     
-0.347917694961     
-0.269338493728     
-0.205600929948     
-0.168364035186     
-0.12024361162      
-0.0779994172932    
-0.0473201871214    
0.0360920850966     
0.0486775090493     
0.190614203308      
0.207799527541      
0.404912066465      
0.438606543082      
0.219220238563      
0.104228542034      
-1.55913127463      
-1.7090112565       
-1.16646608212      
-1.14070312472      
-0.647058411673     
-0.621095859263     
-0.334750552541     
-0.294434830053     
-0.124896388518     
-0.0607045725195    
0.0414342516213     
0.117859070805      
0.185447746331      
0.266047262858      
0.32056145535       
0.404696353923      
0.472193374469      
0.498206280269      
0.125720895163      
-0.141711273155     
-1.65052321581      
-1.82149870394      
-0.619276395576     
-0.591968444697     
-0.440648549142     
-0.329020560027     
-0.264719705951     
-0.195061262322     
-0.174551459457     
-0.119326142696     
-0.0942640221109    
-0.0501187269282    
0.0160710022424     
0.0434562056611     
0.181288480585      
0.200734251136      
0.397749606572      
0.43384030738       
0.231975968874      
0.124366264066      
-1.49928164634      
-1.66362594287      
-1.1301182837       
-1.11565423764      
-0.625781556128     
-0.604112445146     
-0.327534490615     
-0.281064726605     
-0.121497098748     
-0.0516241596491    
0.0424181509011     
0.124650103375      
0.176446216052      
0.271488801814      
0.294180617903      
0.400630488251      
0.453171729881      
0.490944739739      
0.195435495179      
-0.120403563963     
-1.16922852631      
-1.4398129954       
-0.458088639098     
-0.428893892651     
-0.305122248298     
-0.213246749203     
-0.180781281149     
-0.149710056943     
-0.123709242996     
-0.110007788487     
-0.0773587684985    
-0.057712821313     
-0.00524245818993   
0.0295669997779     
0.137525575475      
0.182589088245      
0.372925632083      
0.424687730148      
0.274361136444      
0.177155196116      
-1.37357133766      
-1.54381731077      
-1.06195985216      
-1.04691671389      
-0.56518118052      
-0.545754080536     
-0.254746151708     
-0.229308827346     
-0.0354233520359    
-0.00622473311449   
0.121138381928      
0.166263833532      
0.236425876064      
0.313570080308      
0.325815135004      
0.438022615147      
0.434279509491      
0.494630026563      
0.424595082557      
0.17709053629       
-0.57639363403      
-0.705466101918     
-0.238677778087     
-0.242024833981     
-0.191462735282     
-0.217855146861     
-0.17608296766      
-0.165276677348     
-0.154945733082     
-0.124817214024     
-0.123790477619     
-0.0804319709943    
-0.067249722709     
0.00319640945665    
0.0485198363463     
0.16744944205       
0.310178810927      
0.409971303245      
0.370351447687      
0.305819121613      
-1.00731585519      
-1.25265805769      
-0.811150904711     
-0.779495152498     
-0.384581546589     
-0.374334076159     
-0.145402280471     
-0.166848072725     
0.0180930700258     
-0.0182897307843    
0.136443116282      
0.101055104507      
0.240312756991      
0.2193046463        
0.375227029035      
0.402612803783      
0.481874725669      
0.583182067324      
0.5463071891        
0.555815398812      
-0.437655162815     
-0.554445369769     
-0.344338683156     
-0.497690475323     
-0.315991525584     
-0.454684628434     
-0.300116682136     
-0.406652490918     
-0.283881090002     
-0.361174051392     
-0.268418321474     
-0.308682045829     
-0.24215123161      
-0.216956024757     
-0.158331626222     
0.0342469972606     
0.172257556179      
0.870961153699      
-0.654509343305     
-0.577861349883     
-0.825839649838     
-0.57135085807      
-0.643115515149     
-0.565172140476     
-0.571528825114     
-0.562616930518     
-0.53188698224      
-0.556733343968     
-0.519347961332     
-0.553037326197     
-0.533246947836     
-0.549782772198     
-0.575619004673     
-0.536968309468     
-0.633352735277     
0.350467701368      
-0.796231340595     
-0.56672164982      
-0.848523108433     
-0.54282520567      
-0.675927284073     
-0.554075001198     
-0.610168184339     
-0.57131392969      
-0.57780269987      
-0.589087356318     
-0.577300244635     
-0.617105387259     
-0.610369080887     
-0.658303219189     
-0.680187240035     
-0.720279027677     
-0.783945616181     
-0.297291360129     
-0.545546692008     
-0.339955455677     
-0.570464354547     
-0.3026520794       
-0.450374946776     
-0.334977578741     
-0.420541928659     
-0.375907177111     
-0.415981010832     
-0.422995360401     
-0.44175803884      
-0.489032034117     
-0.502972195779     
-0.581315809743     
-0.604558317834     
-0.736025030405     
-0.78700139812      
-0.787476808936     
0.00410300876233    
-0.0553757812463    
-0.306536829309     
-0.00140972543653   
-0.234108233795     
-0.051688050978     
-0.217123587175     
-0.121652303329     
-0.228604712332     
-0.197729413985     
-0.276244975112     
-0.296047480071     
-0.374924967638     
-0.433027832013     
-0.548145114941     
-0.661362282285     
-0.881865873643     
-0.860579997856     
-4.6688931824       
-4.21071327997      
-1.17543495949      
-0.935616083109     
-0.543504533152     
-0.350920653919     
-0.239302363338     
-0.148503035984     
-0.0824684488116    
-0.049848200329     
0.0490147396121     
0.075907376018      
0.15833088111       
0.21487460172       
0.282464446571      
0.364890131295      
0.552916220924      
0.559855842929      
0.417960159795      
0.352620547567      
-1.08310376888      
-1.1964246516       
-0.841506145718     
-0.926521458424     
-0.634773248179     
-0.662762095279     
-0.33640870346      
-0.362747536251     
-0.126045012723     
-0.114486721522     
-0.00686338239121   
0.0193866579635     
0.20493734484       
0.236995662858      
0.490360796279      
0.567597905105      
0.777668756641      
0.855286645011      
-0.344340302097     
-2.70429155756      
-3.32393162085      
-2.88613424086      
-0.937249331097     
-0.901747149693     
-0.473745863298     
-0.424238045945     
-0.263905872311     
-0.204600485278     
-0.136168952518     
-0.0694383113895    
-0.0314080630458    
0.035347374569      
0.0867250821336     
0.142704564023      
0.265914227119      
0.273445433537      
0.45273678282       
0.468484527448      
0.191392981084      
0.112674037783      
-1.63269831841      
-1.91253130761      
-1.1970569067       
-1.35620906727      
-0.670604395327     
-0.7961912137       
-0.376027624055     
-0.42962747266      
-0.12790677831      
-0.160293126479     
0.0870915312892     
0.0790870195571     
0.269928222668      
0.298212631494      
0.429347522334      
0.481282259394      
0.548899179024      
0.57901228367       
0.0322738498712     
-0.589095752716     
-3.03661683715      
-2.43475263329      
-0.854033387186     
-0.73188315925      
-0.438560617034     
-0.376204067993     
-0.26103077358      
-0.224507496208     
-0.156100836695     
-0.122558341793     
-0.0657970686515    
-0.0324183512576    
0.0470366572245     
0.0715139510793     
0.206087811354      
0.232717214754      
0.413722681697      
0.460631985493      
0.208947061326      
0.00432834123663    
-1.63743532018      
-2.0287704857       
-1.20058223755      
-1.323002778        
-0.653730761324     
-0.73692283139      
-0.327119356734     
-0.36093142105      
-0.100087966895     
-0.0920860398523    
0.0808763501643     
0.109254739995      
0.235820790876      
0.276996706004      
0.385348530208      
0.433347850901      
0.510410800609      
0.532109131536      
0.157191998782      
-0.175654617762     
-2.89024210785      
-2.31587059178      
-0.828471476874     
-0.704237215074     
-0.435934862101     
-0.371064511115     
-0.259749657819     
-0.224405781044     
-0.15921488922      
-0.132687039509     
-0.0720778149354    
-0.052700999188     
0.0358172206292     
0.0502690522277     
0.187639933238      
0.217228907757      
0.409281637724      
0.453421137345      
0.245198519261      
0.0640041847485     
-1.57642013891      
-1.85947505992      
-1.18214397844      
-1.21984941485      
-0.652550227646     
-0.667123805778     
-0.329038945516     
-0.322084721213     
-0.10686215432      
-0.0765163849086    
0.0685514918038     
0.110119948665      
0.220775397213      
0.267480902615      
0.369236251708      
0.418934325104      
0.50110079311       
0.521143532732      
0.170536247741      
-0.129473670327     
-2.674738232        
-2.23112112577      
-0.806232984524     
-0.700437336093     
-0.452964393698     
-0.382716530612     
-0.266484288164     
-0.230413671053     
-0.164032765256     
-0.137853366279     
-0.0742367413182    
-0.0579963096774    
0.0357831658184     
0.045210466586      
0.188026088576      
0.211012064807      
0.410298404457      
0.446890429179      
0.241926136873      
0.099159980869      
-1.56836604248      
-1.74842656565      
-1.18095022534      
-1.16556252871      
-0.656055805432     
-0.637559668099     
-0.336501478499     
-0.307975130378     
-0.117569021501     
-0.0722037735652    
0.0544155560036     
0.10915771198       
0.204340764993      
0.262539064106      
0.34911102633       
0.410026534983      
0.492942656218      
0.51514274752       
0.140727101788      
-0.163762280896     
-2.48440155691      
-2.19087467791      
-0.780583998743     
-0.68410749101      
-0.461167397205     
-0.370829748252     
-0.269247845241     
-0.221437792643     
-0.165882622596     
-0.131252918911     
-0.0741826029359    
-0.0540119227465    
0.038616683549      
0.0465961625057     
0.191235658657      
0.209452359699      
0.409257532753      
0.442205777126      
0.224927433038      
0.102752274659      
-1.57575475129      
-1.71802696254      
-1.18072407533      
-1.14809601578      
-0.656138364031     
-0.627068516938     
-0.339304065109     
-0.3010151592       
-0.1243262761       
-0.0673469828201    
0.0445259472353     
0.112190246015      
0.191843578063      
0.262564994869      
0.332158776172      
0.405923936014      
0.482830761032      
0.506698416263      
0.117678931128      
-0.163681049785     
-2.27347080616      
-2.13341442086      
-0.742570774655     
-0.656757955978     
-0.457577127079     
-0.347917753985     
-0.269337965159     
-0.205600678411     
-0.168363334145     
-0.120243293559     
-0.0779985291921    
-0.0473198376422    
0.0360928638797     
0.0486775609325     
0.190614499303      
0.207799709827      
0.40491291229       
0.438606687723      
0.219216763697      
0.104222685683      
-1.55914681369      
-1.70902706542      
-1.1664679372       
-1.14069960151      
-0.64705810682      
-0.621095524876     
-0.334750605523     
-0.294434790814     
-0.124896939084     
-0.0607049173291    
0.0414345007364     
0.117859277546      
0.185447545031      
0.266047219297      
0.320561840183      
0.404697004055      
0.472193803065      
0.498206772686      
0.1257197721        
-0.14171736882      
-1.65053346732      
-1.82150679349      
-0.619275997182     
-0.591968161159     
-0.440647099455     
-0.329021264222     
-0.264720113257     
-0.195062080053     
-0.17455180556      
-0.119325962404     
-0.0942633872363    
-0.0501182489091    
0.0160716185917     
0.0434565093465     
0.181288329935      
0.200734148063      
0.397749444985      
0.433840420915      
0.231975312852      
0.124367260553      
-1.49929056615      
-1.66363779149      
-1.13011507324      
-1.11565574921      
-0.625780856718     
-0.604112626072     
-0.327535286076     
-0.281065343385     
-0.121498090677     
-0.0516247362802    
0.0424174052572     
0.124649777302      
0.176446080139      
0.271489149632      
0.294180282112      
0.400629858732      
0.45317234102       
0.490944757197      
0.195432970116      
-0.120404550232     
-1.16925621189      
-1.43983610832      
-0.458096694055     
-0.428895738099     
-0.305124012082     
-0.213246875791     
-0.180781262437     
-0.14970988109      
-0.123708955802     
-0.110007610289     
-0.0773581488899    
-0.0577116181403    
-0.00524107837746   
0.0295681352912     
0.137525497659      
0.182589072473      
0.372926235008      
0.424687762113      
0.274360670578      
0.177156501584      
-1.37358371032      
-1.54383223803      
-1.0619626779       
-1.04691969668      
-0.565182356112     
-0.545754198185     
-0.254747336913     
-0.229309383499     
-0.0354239699697    
-0.00622564986539   
0.121139340992      
0.166264505971      
0.236428407424      
0.313571555027      
0.325818472575      
0.438023366165      
0.434281352387      
0.49462951735       
0.424594497365      
0.177090133122      
-0.576414834843     
-0.705485176973     
-0.238682863945     
-0.242033051816     
-0.191465519264     
-0.217858119335     
-0.17608208347      
-0.165277861145     
-0.154944225317     
-0.124818086705     
-0.123790232681     
-0.0804318131338    
-0.0672491727149    
0.00319743087585    
0.0485206057987     
0.1674506144        
0.310182065251      
0.409972841527      
0.370351989209      
0.305819598395      
-1.00732411021      
-1.25266387783      
-0.811154352078     
-0.779499377178     
-0.384582549777     
-0.374333995168     
-0.145401755801     
-0.166848205386     
0.0180946734134     
-0.0182898050305    
0.136442572321      
0.101053959851      
0.240311144301      
0.219304047764      
0.375226110036      
0.402611658172      
0.481876030442      
0.58318294636       
0.546309672815      
0.555816200522      
-0.437654928674     
-0.554388744584     
-0.344343368191     
-0.497720777938     
-0.31599503159      
-0.454681887371     
-0.30011511132      
-0.406651342072     
-0.283880991018     
-0.361172770118     
-0.268417781419     
-0.308681091212     
-0.242151502553     
-0.216959824126     
-0.158328899658     
0.0342402170143     
0.172260270192      
0.870951280223      
-0.654564045162     
-0.577732098117     
-0.825858684751     
-0.571396188326     
-0.643141687479     
-0.56517713443      
-0.571539268909     
-0.562609230611     
-0.531889178799     
-0.556731961251     
-0.519351741964     
-0.553040156816     
-0.533254431378     
-0.549772798637     
-0.575626025824     
-0.536971060471     
-0.633339675137     
0.350464584702      
-0.796305705009     
-0.566797866575     
-0.848539964116     
-0.542840494177     
-0.675946282276     
-0.554098061586     
-0.610177904373     
-0.571326700485     
-0.577804953211     
-0.589090491835     
-0.577301293124     
-0.617106821404     
-0.610375477212     
-0.658309247509     
-0.680195609534     
-0.720300249575     
-0.783957282288     
-0.297321208031     
-0.545553541021     
-0.339885764513     
-0.570491009152     
-0.302651904759     