# vtk DataFile Version 3.0
PyPan results file. Generated by PyPan, USU AeroLab (c) 2020.
ASCII
DATASET POLYDATA
POINTS 492 float
-4.75               -4.0                0.0                 
-4.75               4.0                 0.0                 
-4.7255282402       -4.00441503525      -0.00143460487016   
-4.7255282402       -4.00441503525      0.00143460487016    
-4.7255282402       -4.00272893906      -0.00375584419817   
-4.7255282402       -4.00272893906      0.00375584419817    
-4.7255282402       -4.0                -0.00464247865602   
-4.7255282402       -4.0                0.00464247865602    
-4.7255282402       4.0                 -0.00464247865602   
-4.7255282402       4.0                 0.00464247865602    
-4.7255282402       4.00272893906       -0.00375584419817   
-4.7255282402       4.00272893906       0.00375584419817    
-4.7255282402       4.00441503525       -0.00143460487016   
-4.7255282402       4.00441503525       0.00143460487016    
-4.6545085907       -4.01323318481      -0.00429976172745   
-4.6545085907       -4.01323318481      0.00429976172745    
-4.6545085907       -4.00817871094      -0.0112569229677    
-4.6545085907       -4.00817871094      0.0112569229677     
-4.6545085907       -4.0                -0.0139143215492    
-4.6545085907       -4.0                0.0139143215492     
-4.6545085907       4.0                 -0.0139143215492    
-4.6545085907       4.0                 0.0139143215492     
-4.6545085907       4.00817871094       -0.0112569229677    
-4.6545085907       4.00817871094       0.0112569229677     
-4.6545085907       4.01323318481       -0.00429976172745   
-4.6545085907       4.01323318481       0.00429976172745    
-4.65211296082      -3.90211296082      0.0                 
-4.65211296082      3.90211296082       0.0                 
-4.62764120102      -3.90211296082      -0.00464247865602   
-4.62764120102      -3.90211296082      0.00464247865602    
-4.62764120102      3.90211296082       -0.00464247865602   
-4.62764120102      3.90211296082       0.00464247865602    
-4.55662155151      -3.90211296082      -0.0139143215492    
-4.55662155151      -3.90211296082      0.0139143215492     
-4.55662155151      3.90211296082       -0.0139143215492    
-4.55662155151      3.90211296082       0.0139143215492     
-4.54389286041      -4.02558851242      -0.00831415317953   
-4.54389286041      -4.02558851242      0.00831415317953    
-4.54389286041      -4.01581430435      -0.0217667371035    
-4.54389286041      -4.01581430435      0.0217667371035     
-4.54389286041      -4.0                -0.0269051659852    
-4.54389286041      -4.0                0.0269051659852     
-4.54389286041      4.0                 -0.0269051659852    
-4.54389286041      4.0                 0.0269051659852     
-4.54389286041      4.01581430435       -0.0217667371035    
-4.54389286041      4.01581430435       0.0217667371035     
-4.54389286041      4.02558851242       -0.00831415317953   
-4.54389286041      4.02558851242       0.00831415317953    
-4.44600582123      -3.90211296082      -0.0269051659852    
-4.44600582123      -3.90211296082      0.0269051659852     
-4.44600582123      3.90211296082       -0.0269051659852    
-4.44600582123      3.90211296082       0.0269051659852     
-4.4045085907       -4.03891468048      -0.0126441745088    
-4.4045085907       -4.03891468048      0.0126441745088     
-4.4045085907       -4.02405071259      -0.0331028774381    
-4.4045085907       -4.02405071259      0.0331028774381     
-4.4045085907       -4.0                -0.0409174077213    
-4.4045085907       -4.0                0.0409174077213     
-4.4045085907       4.0                 -0.0409174077213    
-4.4045085907       4.0                 0.0409174077213     
-4.4045085907       4.02405071259       -0.0331028774381    
-4.4045085907       4.02405071259       0.0331028774381     
-4.4045085907       4.03891468048       -0.0126441745088    
-4.4045085907       4.03891468048       0.0126441745088     
-4.36803388596      -3.61803388596      0.0                 
-4.36803388596      3.61803388596       0.0                 
-4.34356212616      -3.61803388596      -0.00464247865602   
-4.34356212616      -3.61803388596      0.00464247865602    
-4.34356212616      3.61803388596       -0.00464247865602   
-4.34356212616      3.61803388596       0.00464247865602    
-4.30662155151      -3.90211296082      -0.0409174077213    
-4.30662155151      -3.90211296082      0.0409174077213     
-4.30662155151      3.90211296082       -0.0409174077213    
-4.30662155151      3.90211296082       0.0409174077213     
-4.27254247665      -3.61803388596      -0.0139143215492    
-4.27254247665      -3.61803388596      0.0139143215492     
-4.27254247665      3.61803388596       -0.0139143215492    
-4.27254247665      3.61803388596       0.0139143215492     
-4.25               -4.05034923553      -0.0163594372571    
-4.25               -4.05034923553      0.0163594372571     
-4.25               -4.03111743927      -0.0428295619786    
-4.25               -4.03111743927      0.0428295619786     
-4.25               -4.0                -0.0529402531683    
-4.25               -4.0                0.0529402531683     
-4.25               4.0                 -0.0529402531683    
-4.25               4.0                 0.0529402531683     
-4.25               4.03111743927       -0.0428295619786    
-4.25               4.03111743927       0.0428295619786     
-4.25               4.05034923553       -0.0163594372571    
-4.25               4.05034923553       0.0163594372571     
-4.16192674637      -3.61803388596      -0.0269051659852    
-4.16192674637      -3.61803388596      0.0269051659852     
-4.16192674637      3.61803388596       -0.0269051659852    
-4.16192674637      3.61803388596       0.0269051659852     
-4.15211296082      -3.90211296082      -0.0529402531683    
-4.15211296082      -3.90211296082      0.0529402531683     
-4.15211296082      3.90211296082       -0.0529402531683    
-4.15211296082      3.90211296082       0.0529402531683     
-4.0954914093       -4.05665874481      -0.0184096004814    
-4.0954914093       -4.05665874481      0.0184096004814     
-4.0954914093       -4.03501701355      -0.0481969565153    
-4.0954914093       -4.03501701355      0.0481969565153     
-4.0954914093       -4.0                -0.0595747157931    
-4.0954914093       -4.0                0.0595747157931     
-4.0954914093       4.0                 -0.0595747157931    
-4.0954914093       4.0                 0.0595747157931     
-4.0954914093       4.03501701355       -0.0481969565153    
-4.0954914093       4.03501701355       0.0481969565153     
-4.0954914093       4.05665874481       -0.0184096004814    
-4.0954914093       4.05665874481       0.0184096004814     
-4.02254247665      -3.61803388596      -0.0409174077213    
-4.02254247665      -3.61803388596      0.0409174077213     
-4.02254247665      3.61803388596       -0.0409174077213    
-4.02254247665      3.61803388596       0.0409174077213     
-3.99760460854      -3.90211296082      -0.0595747157931    
-3.99760460854      -3.90211296082      0.0595747157931     
-3.99760460854      3.90211296082       -0.0595747157931    
-3.99760460854      3.90211296082       0.0595747157931     
-3.95610737801      -4.05488920212      -0.0178346466273    
-3.95610737801      -4.05488920212      0.0178346466273     
-3.95610737801      -4.03392362595      -0.046691711992     
-3.95610737801      -4.03392362595      0.046691711992      
-3.95610737801      -4.0                -0.0577141307294    
-3.95610737801      -4.0                0.0577141307294     
-3.95610737801      4.0                 -0.0577141307294    
-3.95610737801      4.0                 0.0577141307294     
-3.95610737801      4.03392362595       -0.046691711992     
-3.95610737801      4.03392362595       0.046691711992      
-3.95610737801      4.05488920212       -0.0178346466273    
-3.95610737801      4.05488920212       0.0178346466273     
-3.92557048798      -3.17557048798      0.0                 
-3.92557048798      3.17557048798       0.0                 
-3.90109872818      -3.17557048798      -0.00464247865602   
-3.90109872818      -3.17557048798      0.00464247865602    
-3.90109872818      3.17557048798       -0.00464247865602   
-3.90109872818      3.17557048798       0.00464247865602    
-3.86803388596      -3.61803388596      -0.0529402531683    
-3.86803388596      -3.61803388596      0.0529402531683     
-3.86803388596      3.61803388596       -0.0529402531683    
-3.86803388596      3.61803388596       0.0529402531683     
-3.85822033882      -3.90211296082      -0.0577141307294    
-3.85822033882      -3.90211296082      0.0577141307294     
-3.85822033882      3.90211296082       -0.0577141307294    
-3.85822033882      3.90211296082       0.0577141307294     
-3.8454914093       -4.0437951088       -0.0142299029976    
-3.8454914093       -4.0437951088       0.0142299029976     
-3.8454914093       -4.02706670761      -0.037254370749     
-3.8454914093       -4.02706670761      0.037254370749      
-3.8454914093       -4.0                -0.0460489317775    
-3.8454914093       -4.0                0.0460489317775     
-3.8454914093       4.0                 -0.0460489317775    
-3.8454914093       4.0                 0.0460489317775     
-3.8454914093       4.02706670761       -0.037254370749     
-3.8454914093       4.02706670761       0.037254370749      
-3.8454914093       4.0437951088        -0.0142299029976    
-3.8454914093       4.0437951088        0.0142299029976     
-3.83007907867      -3.17557048798      -0.0139143215492    
-3.83007907867      -3.17557048798      0.0139143215492     
-3.83007907867      3.17557048798       -0.0139143215492    
-3.83007907867      3.17557048798       0.0139143215492     
-3.7744717598       -4.0246257782       -0.00800147373229   
[...]
CELL_DATA 980
SCALARS pressure_coefficient float 1
LOOKUP_TABLE default
-6.98027840667      
-6.19001517794      
-1.56913402386      
-1.23725828168      
-0.670983674216     
-0.412570049709     
-0.261258215757     
-0.13288714454      
-0.049598835856     
0.00780453234372    
0.115203460944      
0.155161406652      
0.252663622805      
0.315556381673      
0.404382115485      
0.484498781595      
0.660985109969      
0.65287906622       
0.20348279471       
0.136953416318      
-1.69366547953      
-1.69512657968      
-1.09969825134      
-1.14237049991      
-0.744213956758     
-0.761086155854     
-0.37075064196      
-0.395261527974     
-0.116057569319     
-0.101748379353     
0.035912966594      
0.0639571083325     
0.279161594961      
0.314503208137      
0.594226867368      
0.676307235217      
0.826299777819      
0.820340218129      
-1.35600550458      
-5.41817477901      
-5.02576623705      
-4.27617257334      
-1.2796144879       
-1.24677068841      
-0.60429426876      
-0.54975827232      
-0.305764163751     
-0.230073488714     
-0.126502158487     
-0.0415474491505    
0.0185425390173     
0.100116528977      
0.171775168326      
0.236291222664      
0.373451928302      
0.384493934595      
0.524702881197      
0.537728997741      
-0.156307425504     
-0.259541433605     
-2.45691058929      
-2.64451244712      
-1.53312871355      
-1.64496647929      
-0.793164476235     
-0.906459795896     
-0.405757199187     
-0.457366992144     
-0.103280024011     
-0.136972968062     
0.147527010811      
0.140605288259      
0.353186197061      
0.38609619651       
0.517470559502      
0.56622850592       
0.585884367666      
0.583856872441      
-0.563444272348     
-1.76834263726      
-4.5882337782       
-3.58314896282      
-1.17163850781      
-1.0170860158       
-0.566509482768     
-0.498611404845     
-0.305447780328     
-0.263915928297     
-0.151400041009     
-0.110397191268     
-0.0215330360786    
0.0203950956089     
0.127847861037      
0.158834787781      
0.312742830119      
0.341095493648      
0.490197578544      
0.51401186548       
-0.149658357251     
-0.464826389515     
-2.49487604313      
-2.88030213546      
-1.5433735695       
-1.63437164314      
-0.766693791393     
-0.838468477313     
-0.343856579248     
-0.370439053018     
-0.0667927587328    
-0.0528746080172    
0.143607668315      
0.176020912663      
0.316275508003      
0.358047818289      
0.469963563278      
0.510790234919      
0.553146258388      
0.556805930128      
-0.329364777394     
-1.0327669267       
-4.39974018426      
-3.41258625591      
-1.13865432869      
-0.972360109071     
-0.559837608166     
-0.483886532477     
-0.302007812871     
-0.260091938397     
-0.153457923298     
-0.121178239282     
-0.0274739474189    
-0.00268978354736   
0.116444885319      
0.135216608739      
0.294805751321      
0.325682761655      
0.490798355807      
0.513138592761      
-0.0954351811983    
-0.388462485297     
-2.41543964832      
-2.70332321094      
-1.51868524022      
-1.52557553475      
-0.762275673937     
-0.763389675005     
-0.343022490651     
-0.328277257025     
-0.0718986243369    
-0.0364925032379    
0.132180777408      
0.175761687693      
0.301826911512      
0.346993307792      
0.455129552968      
0.496051148741      
0.54594674231       
0.549699305599      
-0.295441528909     
-0.921623519898     
-4.16415771115      
-3.31177270457      
-1.11385707746      
-0.962886887884     
-0.572992794294     
-0.490975516349     
-0.306563898299     
-0.263596809374     
-0.156844180677     
-0.125003518397     
-0.0290829551728    
-0.00744621909536   
0.115670462642      
0.130245909898      
0.293810842748      
0.319957373545      
0.491477277723      
0.51137228075       
-0.0935717491487    
-0.331809663882     
-2.39595617115      
-2.57040792377      
-1.51348616527      
-1.46580536919      
-0.764353918494     
-0.732427879083     
-0.349230753989     
-0.314143953484     
-0.0807354521924    
-0.0326803025443    
0.12045601961       
0.1742885658        
0.288458145981      
0.341918514415      
0.440358558653      
0.488230008487      
0.540835866127      
0.543622188977      
-0.325879030912     
-0.947496191956     
-3.94168707551      
-3.25396240059      
-1.08463428515      
-0.944209593972     
-0.579387558781     
-0.479792851608     
-0.308474791131     
-0.255654710654     
-0.158456930037     
-0.119697914293     
-0.0294764686456    
-0.00469560563312   
0.117221558051      
0.130594926773      
0.295189305533      
0.317717668397      
0.488560750607      
0.507714166768      
-0.110043273016     
-0.318550578923     
-2.39616810845      
-2.52629550274      
-1.51028485923      
-1.44399379351      
-0.763444963728     
-0.720513128352     
-0.351562298829     
-0.307051928471     
-0.0866703095311    
-0.0284590952481    
0.111920328445      
0.176306512532      
0.277965563299      
0.340971431135      
0.427328133865      
0.483475002354      
0.53405348379       
0.536012985974      
-0.347734141543     
-0.941621874993     
-3.63351683761      
-3.15324672254      
-1.0339999599       
-0.912140714968     
-0.576167620324     
-0.459700954048     
-0.309200470116     
-0.242307859177     
-0.16210550246      
-0.111103333491     
-0.0344860748924    
-8.63239577509e-06  
0.113868126583      
0.13127231127       
0.293952109093      
0.315365658678      
0.48385664977       
0.504683985683      
-0.112506532237     
-0.30988718692      
-2.37008594761      
-2.50502931685      
-1.49211014858      
-1.43161556276      
-0.753027364075     
-0.712347811396     
-0.346917677501     
-0.299852989623     
-0.0876145700359    
-0.0222838950341    
0.108259512936      
0.180744585071      
0.271098198949      
0.342786860909      
0.416322556803      
0.480515464142      
0.527817678909      
0.529058881075      
-0.32517598355      
-0.91127691011      
-2.71163464558      
-2.71035773599      
-0.864903570751     
-0.825935119127     
-0.554083885049     
-0.439070455831     
-0.304645925193     
-0.232506840002     
-0.171684033054     
-0.111859808048     
-0.0546599800436    
-0.00432510209579   
0.0915278182222     
0.125121519422      
0.284119061316      
0.308435962136      
0.478063535185      
0.502712442622      
-0.085514486757     
-0.275684396202     
-2.28178563838      
-2.44185808448      
-1.44279482087      
-1.39961063416      
-0.72528082546      
-0.69195464034      
-0.336128555962     
-0.284329052732     
-0.0823182070303    
-0.0117226009701    
0.109658003344      
0.188249355523      
0.262105733093      
0.347868389123      
0.392778128154      
0.476977862394      
0.522500307053      
0.525612268142      
-0.18794948348      
-0.856085046835     
-1.84195349927      
-2.10206196117      
-0.616513745287     
-0.601600774928     
-0.382848397944     
-0.299171641379     
-0.208714047532     
-0.180707168734     
-0.121950020681     
-0.103757108122     
-0.0467560378186    
-0.0167367016076    
0.0584396366073     
0.106264369871      
0.234702900496      
0.288481359057      
0.459687091731      
0.499795195499      
-0.00218281742402   
-0.187327469469     
-2.08337633292      
-2.27843504416      
-1.33978786702      
-1.31299376051      
-0.645283715761     
-0.623374729571     
-0.250563239412     
-0.225313323101     
0.010970922309      
0.0396887203984     
0.190153160566      
0.235031817458      
0.319759927545      
0.393780113041      
0.420347638056      
0.516476845869      
0.521406446956      
0.549123836263      
0.263785583881      
-0.299678411058     
-0.855412740247     
-1.05561351945      
-0.313884016177     
-0.346280865944     
-0.231117702457     
-0.267269352185     
-0.194738362663     
-0.182363619817     
-0.156747983729     
-0.119933808726     
-0.107143618877     
-0.0521075568757    
-0.0265465849098    
0.0609121986031     
0.120459125176      
0.256317595774      
0.401116833601      
0.491397567685      
0.170736038595      
0.0240614586297     
-1.5950982109       
-1.89661380089      
-1.0379096845       
-1.00363416337      
-0.447373312614     
-0.435795421482     
-0.144676596416     
-0.161651495687     
0.0503701256834     
0.0226387897623     
0.187556761591      
0.164978319123      
0.306116674014      
0.301652438093      
0.457302277926      
0.501286643941      
0.581108110257      
0.68211569973       
0.591178932623      
0.459558605847      
-0.643859475435     
-0.764762215656     
-0.457475014504     
-0.674036707139     
-0.415055959376     
-0.605902003166     
-0.392212351291     
-0.532718184811     
-0.365217360433     
-0.464395982343     
-0.335567940879     
-0.388854084459     
-0.289597412994     
-0.269826262619     
-0.172009480156     
0.0258819962041     
0.220425845355      
0.817802502213      
-1.08771732107      
-0.913591099991     
-1.24701372458      
-0.870850090235     
-0.971083871292     
-0.839806278776     
-0.850120743688     
-0.819778943093     
-0.77863407611      
-0.798479036628     
-0.746062658357     
-0.78577475355      
-0.752593091036     
-0.78623874862      
-0.807791139293     
-0.801862052352     
-0.912091180802     
0.0609869193588     
-1.37845663485      
-0.970617131119     
-1.30988602321      
-0.874370927481     
-1.04993607537      
-0.858760994701     
-0.935794163223     
-0.861102678852     
-0.87246622175      
-0.868593846189     
-0.854581703389     
-0.895983893484     
-0.885979537865     
-0.953897362513     
-0.978274478114     
-1.06549528079      
-1.13380281497      
-0.812311232413     
-0.979672817656     
-0.662828360185     
-0.908706870629     
-0.531547966267     
-0.725608584816     
-0.543948781231     
-0.661647090212     
-0.577691036449     
-0.636270222689     
-0.623169793733     
-0.653269483695     
-0.698146302273     
-0.720205617042     
-0.817797417235     
-0.848819906718     
-1.03908409894      
-1.08201897666      
-1.38094019312      
-0.0413139580598    
-0.171810824604     
-0.415046192381     
-0.0322162998329    
-0.324037619752     
-0.0836431897347    
-0.297318829292     
-0.164024038071     
-0.304812913399     
-0.252063960405     
-0.355531795542     
-0.369979943097     
-0.47005318699      
-0.545191181817     
-0.684092567648     
-0.866695901683     
-1.13280005978      
-1.37476174477      
-6.98030732977      
-6.19002035874      
-1.56913447383      
-1.23726578351      
-0.670984223682     
-0.412571221219     
-0.261257904322     
-0.132887028647     
-0.0495982375204    
0.00780493528303    
0.115203272231      
0.155160893986      
0.252663558775      
0.315555665545      
0.404382469723      
0.484498225649      
0.660984528126      
0.652879693666      
0.203485037749      
0.136955757374      
-1.69366660919      
-1.6951281135       
-1.09970118184      
-1.14237357595      
-0.74421390277      
-0.761087364595     
-0.370751071453     
-0.395263006064     
-0.116057791051     
-0.101750027418     
0.0359136130225     
0.0639561686735     
0.279161603309      
0.314502044033      
0.594225046152      
0.676303889261      
0.826298326481      
0.820339874768      
-1.35600256863      
-5.41812060132      
-5.02577647061      
-4.27618052197      
-1.27961743484      
-1.24677738801      
-0.604295533261     
-0.549764238063     
-0.305765270854     
-0.230077104987     
-0.126503103849     
-0.0415496769048    
0.0185419870799     
0.100115144753      
0.171774520681      
0.23629033094       
0.373450855636      
0.384493976783      
0.524703460873      
0.537730026995      
-0.156303192005     
-0.259538005524     
-2.45691338051      
-2.64450788994      
-1.53313129181      
-1.64496418301      
-0.793166713305     
-0.906458996351     
-0.405757919683     
-0.457367077956     
-0.103280567583     
-0.136973485508     
0.147526363066      
0.140604321824      
0.353185882613      
0.386095264983      
0.51747113544       
0.566228770614      
0.585885820975      
0.583858199343      
-0.563440734553     
-1.7683550442       
-4.58824050439      
-3.58314951051      
-1.17164151528      
-1.01709058821      
-0.566509932462     
-0.49861563278      
-0.30544800872      
-0.263918214838     
-0.151400160049     
-0.110398668211     
-0.0215332644029    
0.020394237894      
0.127847259527      
0.158834384453      
0.312742399712      
0.341095603932      
0.490198570948      
0.514012667691      
-0.14965567682      
-0.464821944815     
-2.49487370652      
-2.88029317314      
-1.5433772084       
-1.63436910376      
-0.766696019763     
-0.838466969726     
-0.343858035771     
-0.370438731164     
-0.0667934596737    
-0.052875034542     
0.143607477242      
0.176020533131      
0.316275934679      
0.358047714137      
0.469964330661      
0.510790550649      
0.553147401099      
0.556807206606      
-0.329362842218     
-1.0327746966       
-4.39974209827      
-3.4125829206       
-1.13865653959      
-0.972363727924     
-0.559838448624     
-0.483890381081     
-0.302008069862     
-0.260093963035     
-0.153458055175     
-0.121179556577     
-0.0274739757151    
-0.00269043272564   
0.116444717333      
0.13521634222       
0.294805810057      
0.325682779074      
0.490799073264      
0.513139068487      
-0.0954330169126    
-0.38845804691      
-2.41544635758      
-2.70331985147      
-1.51868658083      
-1.525573063        
-0.762276149353     
-0.763388237896     
-0.343023390564     
-0.328276995327     
-0.0718992733681    
-0.0364928375949    
0.132180672067      
0.17576138187       
0.301827091184      
0.346993187311      
0.455129760747      
0.496051095378      
0.545947561803      
0.549700062885      
-0.295444325477     
-0.921632064137     
-4.16415951855      
-3.31176723178      
-1.11385769732      
-0.962888739045     
-0.572992660833     
-0.490977782675     
-0.306564012532     
-0.263598118757     
-0.156844030321     
-0.125004345346     
-0.0290828217198    
-0.00744655069849   
0.115670468859      
0.130245698163      
0.293811039908      
0.319957340774      
0.491477764794      
0.511372541389      
-0.0935715182446    
-0.331808387938     
-2.39595751653      
-2.57040617642      
-1.51348368024      
-1.46580212241      
-0.764354081705     
-0.732427414488     
-0.349231081304     
-0.314144023961     
-0.0807357147796    
-0.0326807707603    
0.120456151486      
0.174288350358      
0.288458619228      
0.341918506227      
0.440359241822      
0.488230305884      
0.540836496412      
0.543622835952      
-0.325878009291     
-0.947500825712     
-3.94168704268      
-3.25395584516      
-1.08464135758      
-0.944214031693     
-0.57939081721      
-0.479795371566     
-0.308474667109     
-0.255655741237     
-0.158456705022     
-0.11969845136      
-0.0294763098386    
-0.00469576898      
0.117221369195      
0.130594848365      
0.29518935954       
0.317717681688      
0.488561140732      
0.507714434524      
-0.110041667936     
-0.318551630718     
-2.39616538268      
-2.52629427446      
-1.51028293821      
-1.4439933354       
-0.763445439409     
-0.720512535805     
-0.351562651685     
-0.307052148264     
-0.086670768225     
-0.0284596804542    
0.11192007509       
0.176306117198      
0.277965761216      
0.340971261839      
0.427328519863      
0.483475294987      
0.534053839988      
0.536013571186      
-0.347735143644     
-0.941628438655     
-3.6334821764       
-3.15323963485      
-1.03400213367      
-0.912140588651     
-0.576168495961     
-0.45970169967      
-0.309199943492     
-0.242307828447     
-0.162104769439     
-0.111103078865     
-0.0344851867534    
-8.34748060408e-06  
0.11386890418       
0.13127234943       
0.293952478075      
0.315365846121      
0.483857156759      
0.504684101943      
-0.112514330093     
-0.309898543391     
-2.37010768071      
-2.50505011991      
-1.49211246902      
-1.43161119826      
-0.753026975783     
-0.712347328736     
-0.346917745406     
-0.299852934481     
-0.0876151357133    
-0.022284267204     
0.10825973789       
0.180744720859      
0.271098057475      
0.342786772042      
0.416322857162      
0.480515956015      
0.527818005721      
0.52905878101       
-0.325181417483     
-0.911289121934     
-2.71165142869      
-2.71037009558      
-0.864903330011     
-0.825935074904     
-0.554082043397     
-0.439071356524     
-0.304646171034     
-0.23250758964      
-0.171684348178     
-0.111859578378     
-0.0546593581596    
-0.00432459582653   
0.0915283624556     
0.125121812429      
0.284118944773      
0.308435898186      
0.47806343344       
0.502712426994      
-0.0855144347325    
-0.275681475687     
-2.28179769043      
-2.44187329205      
-1.44279082156      
-1.39961234102      
-0.725279971659     
-0.691954774669     
-0.336129318666     
-0.284329656348     
-0.0823191051011    
-0.0117231514422    
0.109657400083      
0.188249059144      
0.262105717279      
0.347868715528      
0.392777908755      
0.476977372366      
0.522500567588      
0.525612025061      
-0.18795223663      
-0.856084788764     
-1.84199023085      
-2.10209274059      
-0.616524144357     
-0.601604977302     
-0.382850610734     
-0.29917191805      
-0.20871380592      
-0.180706939837     
-0.121949663495     
-0.10375701386      
-0.0467554624       
-0.0167355468172    
0.0584409374585     
0.106265432355      
0.234702873038      
0.288481368024      
0.45968756825       
0.499795173708      
-0.00218268355728   
-0.187324118394     
-2.08339326634      
-2.27845446404      
-1.33979135847      
-1.31299730947      
-0.645285255829     
-0.623374877081     
-0.250564490722     
-0.225313859954     
0.0109704089248     
0.0396878593814     
0.190154333853      
0.235032518635      
0.319762498018      
0.393781499101      
0.420350751112      
0.516477452101      
0.521407715108      
0.549123627544      
0.263785340385      
-0.299677930809     
-0.855441213653     
-1.05564050057      
-0.313890232454     
-0.346291528891     
-0.231120941641     
-0.267272805126     
-0.194737257287     
-0.18236481275      
-0.156746178159     
-0.119934753798     
-0.10714333951      
-0.0521073783263    
-0.0265461122072    
0.0609132813207     
0.120459860566      
0.256318682824      
0.401119563586      
0.491398971122      
0.170736674189      
0.0240619424159     
-1.59510966595      
-1.89662111181      
-1.03791396809      
-1.00363904705      
-0.447374833057     
-0.435795347347     
-0.144675793241     
-0.161651344317     
0.0503720440576     
0.0226388389077     
0.187556319856      
0.164977211388      
0.306115167318      
0.301651910546      
0.457301619432      
0.501285538065      
0.581109339827      
0.682116285503      
0.591181003494      
0.459555725313      
-0.643850800757     
-0.764657696376     
-0.457481024192     
-0.674082959035     
-0.415059653513     
-0.605897264472     
-0.392210042797     
-0.532716463078     
-0.365217625821     
-0.464393680174     
-0.335566922893     
-0.388853111772     
-0.289597321464     
-0.269831151807     
-0.172005761206     
0.0258742141369     
0.220428975019      
0.817789050609      
-1.08780816879      
-0.913336705427     
-1.24704233504      
-0.870919145884     
-0.971122130413     
-0.83980840597      
-0.850133824446     
-0.819767272522     
-0.778636529321     
-0.798476916138     
-0.746068014005     
-0.785778858091     
-0.752603281518     
-0.786226195277     
-0.807799872898     
-0.801866589287     
-0.912070321864     
0.0609814368537     
-1.37858130112      
-0.970746507908     
-1.30991054217      
-0.874401516133     
-1.04996767267      
-0.858796223315     
-0.935809430324     
-0.861122237021     
-0.872469262645     
-0.868599935566     
-0.854583386468     
-0.895986514446     
-0.885989733031     
-0.953906755301     
-0.978287303413     
-1.06552551516      
-1.13381881281      
-0.812356667094     
-0.979674367497     
-0.66268628107      
-0.908748634124     
-0.531549880328     