# vtk DataFile Version 3.0
PyPan results file. Generated by PyPan, USU AeroLab (c) 2020.
ASCII
DATASET POLYDATA
POINTS 492 float
-4.75               -4.0                0.0                 
-4.75               4.0                 0.0                 
-4.7255282402       -4.00441503525      -0.00143460487016   
-4.7255282402       -4.00441503525      0.00143460487016    
-4.7255282402       -4.00272893906      -0.00375584419817   
-4.7255282402       -4.00272893906      0.00375584419817    
-4.7255282402       -4.0                -0.00464247865602   
-4.7255282402       -4.0                0.00464247865602    
-4.7255282402       4.0                 -0.00464247865602   
-4.7255282402       4.0                 0.00464247865602    
-4.7255282402       4.00272893906       -0.00375584419817   
-4.7255282402       4.00272893906       0.00375584419817    
-4.7255282402       4.00441503525       -0.00143460487016   
-4.7255282402       4.00441503525       0.00143460487016    
-4.6545085907       -4.01323318481      -0.00429976172745   
-4.6545085907       -4.01323318481      0.00429976172745    
-4.6545085907       -4.00817871094      -0.0112569229677    
-4.6545085907       -4.00817871094      0.0112569229677     
-4.6545085907       -4.0                -0.0139143215492    
-4.6545085907       -4.0                0.0139143215492     
-4.6545085907       4.0                 -0.0139143215492    
-4.6545085907       4.0                 0.0139143215492     
-4.6545085907       4.00817871094       -0.0112569229677    
-4.6545085907       4.00817871094       0.0112569229677     
-4.6545085907       4.01323318481       -0.00429976172745   
-4.6545085907       4.01323318481       0.00429976172745    
-4.65211296082      -3.90211296082      0.0                 
-4.65211296082      3.90211296082       0.0                 
-4.62764120102      -3.90211296082      -0.00464247865602   
-4.62764120102      -3.90211296082      0.00464247865602    
-4.62764120102      3.90211296082       -0.00464247865602   
-4.62764120102      3.90211296082       0.00464247865602    
-4.55662155151      -3.90211296082      -0.0139143215492    
-4.55662155151      -3.90211296082      0.0139143215492     
-4.55662155151      3.90211296082       -0.0139143215492    
-4.55662155151      3.90211296082       0.0139143215492     
-4.54389286041      -4.02558851242      -0.00831415317953   
-4.54389286041      -4.02558851242      0.00831415317953    
-4.54389286041      -4.01581430435      -0.0217667371035    
-4.54389286041      -4.01581430435      0.0217667371035     
-4.54389286041      -4.0                -0.0269051659852    
-4.54389286041      -4.0                0.0269051659852     
-4.54389286041      4.0                 -0.0269051659852    
-4.54389286041      4.0                 0.0269051659852     
-4.54389286041      4.01581430435       -0.0217667371035    
-4.54389286041      4.01581430435       0.0217667371035     
-4.54389286041      4.02558851242       -0.00831415317953   
-4.54389286041      4.02558851242       0.00831415317953    
-4.44600582123      -3.90211296082      -0.0269051659852    
-4.44600582123      -3.90211296082      0.0269051659852     
-4.44600582123      3.90211296082       -0.0269051659852    
-4.44600582123      3.90211296082       0.0269051659852     
-4.4045085907       -4.03891468048      -0.0126441745088    
-4.4045085907       -4.03891468048      0.0126441745088     
-4.4045085907       -4.02405071259      -0.0331028774381    
-4.4045085907       -4.02405071259      0.0331028774381     
-4.4045085907       -4.0                -0.0409174077213    
-4.4045085907       -4.0                0.0409174077213     
-4.4045085907       4.0                 -0.0409174077213    
-4.4045085907       4.0                 0.0409174077213     
-4.4045085907       4.02405071259       -0.0331028774381    
-4.4045085907       4.02405071259       0.0331028774381     
-4.4045085907       4.03891468048       -0.0126441745088    
-4.4045085907       4.03891468048       0.0126441745088     
-4.36803388596      -3.61803388596      0.0                 
-4.36803388596      3.61803388596       0.0                 
-4.34356212616      -3.61803388596      -0.00464247865602   
-4.34356212616      -3.61803388596      0.00464247865602    
-4.34356212616      3.61803388596       -0.00464247865602   
-4.34356212616      3.61803388596       0.00464247865602    
-4.30662155151      -3.90211296082      -0.0409174077213    
-4.30662155151      -3.90211296082      0.0409174077213     
-4.30662155151      3.90211296082       -0.0409174077213    
-4.30662155151      3.90211296082       0.0409174077213     
-4.27254247665      -3.61803388596      -0.0139143215492    
-4.27254247665      -3.61803388596      0.0139143215492     
-4.27254247665      3.61803388596       -0.0139143215492    
-4.27254247665      3.61803388596       0.0139143215492     
-4.25               -4.05034923553      -0.0163594372571    
-4.25               -4.05034923553      0.0163594372571     
-4.25               -4.03111743927      -0.0428295619786    
-4.25               -4.03111743927      0.0428295619786     
-4.25               -4.0                -0.0529402531683    
-4.25               -4.0                0.0529402531683     
-4.25               4.0                 -0.0529402531683    
-4.25               4.0                 0.0529402531683     
-4.25               4.03111743927       -0.0428295619786    
-4.25               4.03111743927       0.0428295619786     
-4.25               4.05034923553       -0.0163594372571    
-4.25               4.05034923553       0.0163594372571     
-4.16192674637      -3.61803388596      -0.0269051659852    
-4.16192674637      -3.61803388596      0.0269051659852     
-4.16192674637      3.61803388596       -0.0269051659852    
-4.16192674637      3.61803388596       0.0269051659852     
-4.15211296082      -3.90211296082      -0.0529402531683    
-4.15211296082      -3.90211296082      0.0529402531683     
-4.15211296082      3.90211296082       -0.0529402531683    
-4.15211296082      3.90211296082       0.0529402531683     
-4.0954914093       -4.05665874481      -0.0184096004814    
-4.0954914093       -4.05665874481      0.0184096004814     
-4.0954914093       -4.03501701355      -0.0481969565153    
-4.0954914093       -4.03501701355      0.0481969565153     
-4.0954914093       -4.0                -0.0595747157931    
-4.0954914093       -4.0                0.0595747157931     
-4.0954914093       4.0                 -0.0595747157931    
-4.0954914093       4.0                 0.0595747157931     
-4.0954914093       4.03501701355       -0.0481969565153    
-4.0954914093       4.03501701355       0.0481969565153     
-4.0954914093       4.05665874481       -0.0184096004814    
-4.0954914093       4.05665874481       0.0184096004814     
-4.02254247665      -3.61803388596      -0.0409174077213    
-4.02254247665      -3.61803388596      0.0409174077213     
-4.02254247665      3.61803388596       -0.0409174077213    
-4.02254247665      3.61803388596       0.0409174077213     
-3.99760460854      -3.90211296082      -0.0595747157931    
-3.99760460854      -3.90211296082      0.0595747157931     
-3.99760460854      3.90211296082       -0.0595747157931    
-3.99760460854      3.90211296082       0.0595747157931     
-3.95610737801      -4.05488920212      -0.0178346466273    
-3.95610737801      -4.05488920212      0.0178346466273     
-3.95610737801      -4.03392362595      -0.046691711992     
-3.95610737801      -4.03392362595      0.046691711992      
-3.95610737801      -4.0                -0.0577141307294    
-3.95610737801      -4.0                0.0577141307294     
-3.95610737801      4.0                 -0.0577141307294    
-3.95610737801      4.0                 0.0577141307294     
-3.95610737801      4.03392362595       -0.046691711992     
-3.95610737801      4.03392362595       0.046691711992      
-3.95610737801      4.05488920212       -0.0178346466273    
-3.95610737801      4.05488920212       0.0178346466273     
-3.92557048798      -3.17557048798      0.0                 
-3.92557048798      3.17557048798       0.0                 
-3.90109872818      -3.17557048798      -0.00464247865602   
-3.90109872818      -3.17557048798      0.00464247865602    
-3.90109872818      3.17557048798       -0.00464247865602   
-3.90109872818      3.17557048798       0.00464247865602    
-3.86803388596      -3.61803388596      -0.0529402531683    
-3.86803388596      -3.61803388596      0.0529402531683     
-3.86803388596      3.61803388596       -0.0529402531683    
-3.86803388596      3.61803388596       0.0529402531683     
-3.85822033882      -3.90211296082      -0.0577141307294    
-3.85822033882      -3.90211296082      0.0577141307294     
-3.85822033882      3.90211296082       -0.0577141307294    
-3.85822033882      3.90211296082       0.0577141307294     
-3.8454914093       -4.0437951088       -0.0142299029976    
-3.8454914093       -4.0437951088       0.0142299029976     
-3.8454914093       -4.02706670761      -0.037254370749     
-3.8454914093       -4.02706670761      0.037254370749      
-3.8454914093       -4.0                -0.0460489317775    
-3.8454914093       -4.0                0.0460489317775     
-3.8454914093       4.0                 -0.0460489317775    
-3.8454914093       4.0                 0.0460489317775     
-3.8454914093       4.02706670761       -0.037254370749     
-3.8454914093       4.02706670761       0.037254370749      
-3.8454914093       4.0437951088        -0.0142299029976    
-3.8454914093       4.0437951088        0.0142299029976     
-3.83007907867      -3.17557048798      -0.0139143215492    
-3.83007907867      -3.17557048798      0.0139143215492     
-3.83007907867      3.17557048798       -0.0139143215492    
-3.83007907867      3.17557048798       0.0139143215492     
-3.7744717598       -4.0246257782       -0.00800147373229   
[...]
CELL_DATA 980
SCALARS pressure_coefficient float 1
LOOKUP_TABLE default
-3.65648113733      
-3.33410544835      
-0.986889969886     
-0.787918711894     
-0.47652385546      
-0.315754357574     
-0.223872554672     
-0.152129874765     
-0.0951134479175    
-0.0754153071133    
0.0185152464288     
0.0383760204704     
0.112030227711      
0.164785473048      
0.218955553969      
0.301993373966      
0.487397052527      
0.502678058705      
0.486146629163      
0.429660371225      
-0.808700115567     
-0.963478405735     
-0.713722767974     
-0.816782655652     
-0.575834554962     
-0.608815783027     
-0.31461352172      
-0.341710923046     
-0.126929058459     
-0.116794505597     
-0.0248853763159    
0.000334624920374   
0.169405808797      
0.199534528992      
0.435506924272      
0.508566646755      
0.73130119252       
0.835247666953      
0.0257285657199     
-1.63930829951      
-2.57883942344      
-2.2700391586       
-0.77492202061      
-0.738414485467     
-0.407230794765     
-0.360042993488     
-0.239172666358     
-0.187838789725     
-0.136900531321     
-0.0795825094416    
-0.0530830063261    
0.00556520465259    
0.0454987545791     
0.0963075306358     
0.208900480127      
0.213829496731      
0.40166689967       
0.4178897694        
0.311841624378      
0.251315319068      
-1.26443067146      
-1.57411484017      
-1.03364742553      
-1.21181282961      
-0.60609653765      
-0.736562852138     
-0.356648645238     
-0.410914569677     
-0.13623527427      
-0.167831225967     
0.0594364418558     
0.0509263818559     
0.228384601664      
0.253953256121      
0.380425723638      
0.432450342142      
0.513237926851      
0.55282710467       
0.240661224691      
-0.155610597007     
-2.35559166687      
-1.9223297429       
-0.703124684277     
-0.596077175723     
-0.373675718705     
-0.314188051706     
-0.235334507402     
-0.201264056293     
-0.15439507423      
-0.124631087633     
-0.0843618043878    
-0.0555944750131    
0.0083378199187     
0.0288495796066     
0.149729583141      
0.174225812326      
0.359579035239      
0.415164223678      
0.330832667779      
0.179982879352      
-1.25601917606      
-1.64054150879      
-1.03437568713      
-1.16924781571      
-0.593983135985     
-0.681982254967     
-0.314338742138     
-0.351501777382     
-0.112916772634     
-0.107953421865     
0.0519621009991     
0.0779984999936     
0.195816077212      
0.236090867074      
0.338818935607      
0.389283172627      
0.473887000301      
0.500167393988      
0.320643808258      
0.124693332394      
-2.22893669115      
-1.82598808958      
-0.680890231639     
-0.575903335998     
-0.372848417449     
-0.313402065223     
-0.235095862734     
-0.202993096977     
-0.158041388774     
-0.134432763574     
-0.090788779644     
-0.0743088578879    
-0.0026933271485    
0.00914429112618    
0.131295582329      
0.159138796848      
0.353109089701      
0.404952984213      
0.359270584037      
0.229594772175      
-1.20328071325      
-1.47774907837      
-1.01874350458      
-1.06952423715      
-0.594267796731     
-0.615026989703     
-0.317554081803     
-0.31441175736      
-0.120500338959     
-0.0928570925162    
0.0391952150391     
0.0794067487479     
0.180464825782      
0.227420130501      
0.322015989898      
0.375186270264      
0.463908580468      
0.488559815685      
0.327229426717      
0.148497647299      
-2.02764301277      
-1.74961520602      
-0.66008699766      
-0.574624034605     
-0.391529797701     
-0.327073805392     
-0.242845295342     
-0.210196445965     
-0.163553798476     
-0.140261873687     
-0.0932205493828    
-0.0798543842372    
-0.00231070346921   
0.00412590427189    
0.132591089353      
0.152911290181      
0.354866662948      
0.396558166888      
0.355094859212      
0.254877177165      
-1.19990996004      
-1.3778268734       
-1.01936011424      
-1.01820423616      
-0.598434249869     
-0.586296823342     
-0.325588120465     
-0.300371989372     
-0.132113069273     
-0.0882999279853    
0.0238363581694     
0.0787283027094     
0.162414910343      
0.222599268268      
0.298936203437      
0.365758438512      
0.454231047354      
0.483207017518      
0.301026266836      
0.115498352501      
-1.85583250541      
-1.71750894649      
-0.636492727267     
-0.559703966018     
-0.400590546968     
-0.315078542398     
-0.246048318445     
-0.200824588677     
-0.165529222806     
-0.133060110827     
-0.0929325383657    
-0.0752381886665    
0.00122824837683    
0.00610938848033    
0.136916785532      
0.151881223213      
0.355254386225      
0.391824846569      
0.339149041588      
0.25473069791       
-1.21017085494      
-1.3536692309       
-1.02056314444      
-1.00288991756      
-0.599036638116     
-0.576567164154     
-0.328625002964     
-0.293518329508     
-0.139262594594     
-0.0831335690949    
0.013287800075      
0.0823118085351     
0.148931055083      
0.223235139171      
0.280001011559      
0.362263541902      
0.442616462399      
0.474666993011      
0.27918390361       
0.112572532201      
-1.68795412356      
-1.67850022748      
-0.604493650537     
-0.534920002732     
-0.396950969598     
-0.291184239962     
-0.245868956889     
-0.183907471853     
-0.167431587305     
-0.120897600877     
-0.0961168449099    
-0.0675314435695    
-0.00081585023052   
0.00895806307837    
0.136702362359      
0.150711074676      
0.351300302781      
0.388291208742      
0.332360903749      
0.253615797823      
-1.19781087597      
-1.34975042225      
-1.00823258098      
-0.997785701143     
-0.590667236156     
-0.571661775415     
-0.32415355846      
-0.287272016178     
-0.139643473108     
-0.0762771226135    
0.0105410129716     
0.0886292559051     
0.142953624244      
0.227702316844      
0.26861704917       
0.362372004092      
0.430554083169      
0.465719420219      
0.280975903623      
0.128041822121      
-1.19511649376      
-1.42491465153      
-0.502081907516     
-0.480057795392     
-0.382374708855     
-0.273122440582     
-0.241133058903     
-0.172956008202     
-0.1718622113       
-0.119105402063     
-0.110307655217     
-0.0695382722762    
-0.0194936334388    
0.00425087676608    
0.127838972248      
0.143683536659      
0.34386281937       
0.382434042671      
0.339455537592      
0.267757326298      
-1.15037937384      
-1.31230902579      
-0.977859409167     
-0.976008231683     
-0.5725122447       
-0.556366768011     
-0.318736691274     
-0.275023275528     
-0.137238767321     
-0.0679935732306    
0.0113448877783     
0.0950314042931     
0.134258537261      
0.233410447878      
0.241930623308      
0.358548330416      
0.406910754906      
0.457538781822      
0.323410917605      
0.136546998902      
-0.872026622608     
-1.14000870543      
-0.37970378629      
-0.344606957262     
-0.263523620326     
-0.168414201094     
-0.162897104311     
-0.130487248747     
-0.120489039982     
-0.109089939105     
-0.088928216969     
-0.0746739713165    
-0.034621503577     
-0.00699151702462   
0.0877857101309     
0.12686348764       
0.317424291765      
0.371154764279      
0.366060377851      
0.30572625431       
-1.05553761028      
-1.21212078186      
-0.925487521803     
-0.915786922333     
-0.521337543599     
-0.503192629761     
-0.252626540469     
-0.227149739551     
-0.0552978905386    
-0.025909447885     
0.0888241494213     
0.133816429681      
0.195625712732      
0.273569944432      
0.277137306601      
0.395613029194      
0.383696370268      
0.454713290578      
0.462431589248      
0.329122367486      
-0.446064550347     
-0.543492365141     
-0.198345230011     
-0.188070134561     
-0.16759415078      
-0.189137011019     
-0.162846693285     
-0.152633578564     
-0.150645272822     
-0.12351890814      
-0.129378428702     
-0.0915069988039    
-0.0859691634396    
-0.0240047915279    
0.0117090862141     
0.121036091542      
0.255068478055      
0.355626398669      
0.431946769188      
0.400101415477      
-0.744531959358     
-0.962216573231     
-0.699190523488     
-0.669160210987     
-0.350558979213     
-0.340809421658     
-0.143184191961     
-0.166398764935     
0.00395068714865    
-0.0362043064867    
0.112315421974      
0.0709811778333     
0.208290418295      
0.179102680391      
0.334098914871      
0.35215044667       
0.429498545837      
0.526295677786      
0.50720637457       
0.561867017834      
-0.349480569981     
-0.464777914013     
-0.297074734814     
-0.420964132402     
-0.274061173152     
-0.388476020895     
-0.261013564762     
-0.35179760989      
-0.249635571647     
-0.317105786269     
-0.240969865467     
-0.276052499421     
-0.22467123674      
-0.198800384288     
-0.158649685358     
0.02660384952       
0.135748624717      
0.866117090348      
-0.481930565881     
-0.449828675655     
-0.648564133163     
-0.452542688989     
-0.505987881032     
-0.453913090411     
-0.455446392662     
-0.457188556933     
-0.429482052342     
-0.457151636564     
-0.425834615022     
-0.457300282864     
-0.443715786744     
-0.453283177801     
-0.482395281016     
-0.430769492902     
-0.526125666797     
0.451438287843      
-0.567536188805     
-0.417591764133     
-0.657446900334     
-0.415264470193     
-0.522194899182     
-0.433572445189     
-0.476700871309     
-0.454652369126     
-0.457229920257     
-0.47526182522      
-0.463984233742     
-0.502604771332     
-0.497950830134     
-0.536279599944     
-0.559090752948     
-0.577443283792     
-0.644704038226     
-0.0860986949527    
-0.379670363897     
-0.231798474614     
-0.434675069845     
-0.222091913007     
-0.340945633949     
-0.257361131643     
-0.324808488503     
-0.298164081296     
-0.328365517427     
-0.343755962025     
-0.357206224588     
-0.404248476633     
-0.415467329125     
-0.483341354021     
-0.505387016387     
-0.607735715855     
-0.666879610343     
-0.526244513129     
0.0128108836466     
-0.0328923474848    
-0.263691930989     
-0.00216346767884   
-0.19867925958      
-0.0464806065876    
-0.185687107776     
-0.108834707936     
-0.198438746042     
-0.177321379557     
-0.243802479282     
-0.264689661639     
-0.333912268121     
-0.381878821674     
-0.486324649532     
-0.564014124846     
-0.763664307642     
-0.622281278911     
-3.65649825868      
-3.33410796101      
-0.98689034014      
-0.787924395104     
-0.476524484834     
-0.3157553673       
-0.223872352105     
-0.152129773637     
-0.0951129384014    
-0.0754149581495    
0.018515105771      
0.0383755855664     
0.112030166747      
0.164784821301      
0.218955926467      
0.301992812248      
0.487396594763      
0.50267826303       
0.486147987417      
0.429662083012      
-0.808700531343     
-0.963479119976     
-0.713724911388     
-0.816784836761     
-0.575834533365     
-0.608816685994     
-0.314613860207     
-0.341712069455     
-0.126929255031     
-0.116795838013     
-0.0248848512072    
0.000333844129308   
0.169405851991      
0.199533547166      
0.435505413762      
0.508563639771      
0.731299941712      
0.835245255666      
0.0257298480279     
-1.6392816936       
-2.57884582785      
-2.27004384406      
-0.774923789294     
-0.738418712015     
-0.407231593432     
-0.360047218266     
-0.239173491675     
-0.187841593985     
-0.136901281665     
-0.0795843197658    
-0.0530834349541    
0.00556404249832    
0.0454981999542     
0.0963067056099     
0.20889944281       
0.213829393146      
0.401666788809      
0.417890416973      
0.311843971163      
0.251317342445      
-1.26443203949      
-1.574111634        
-1.03364911601      
-1.21181110163      
-0.60609825004      
-0.736562224105     
-0.356649252037     
-0.410914655807     
-0.136235746556     
-0.167831686348     
0.0594358796778     
0.0509255585412     
0.22838427565       
0.253952395438      
0.380426088536      
0.432450318346      
0.513239131686      
0.552828577966      
0.240663077144      
-0.15561571198      
-2.35559656301      
-1.92233038254      
-0.703126576057     
-0.596079925484     
-0.37367580303      
-0.314190810913     
-0.235334636116     
-0.201265738767     
-0.154395126587     
-0.124632269095     
-0.0843619579952    
-0.0555951728979    
0.00833730677727    
0.0288491775326     
0.149729033645      
0.174225748501      
0.359579327776      
0.415164452055      
0.330834474713      
0.179985239699      
-1.2560175663       
-1.64053564801      
-1.03437811436      
-1.16924603484      
-0.593984739347     
-0.681981124814     
-0.314339888403     
-0.35150154258      
-0.112917375079     
-0.107953817869     
0.0519619106183     
0.0779981490311     
0.195816422015      
0.23609069138       
0.338819565577      
0.389283112978      
0.47388807095       
0.50016862148       
0.320645295596      
0.124690761237      
-2.22893921133      
-1.82598699808      
-0.680891830202     
-0.575905712276     
-0.372848983447     
-0.313404677297     
-0.235096006746     
-0.202994624694     
-0.15804147407      
-0.13443381837      
-0.0907887579313    
-0.0743093715071    
-0.00269350020801   
0.00914405478649    
0.131295494505      
0.159138745198      
0.353109466916      
0.40495306393       
0.359271644912      
0.229596792893      
-1.20328440078      
-1.47774706098      
-1.01874436537      
-1.06952254076      
-0.594268093931     
-0.615025910144     
-0.317554813348     
-0.31441159881      
-0.120500913461     
-0.0928574338234    
0.0391951171114     
0.0794064458731     
0.180464932937      
0.227419931071      
0.322016063675      
0.375185837281      
0.463909330292      
0.488560820125      
0.327229581401      
0.148494925013      
-2.02764417537      
-1.74961210776      
-0.660087210814     
-0.57462508017      
-0.391529572821     
-0.32707566264      
-0.242845483012     
-0.210197529188     
-0.163553716401     
-0.140262616582     
-0.0932204347326    
-0.079854663149     
-0.00231073097696   
0.00412567818176    
0.1325911876        
0.15291117925       
0.354867125902      
0.396558320036      
0.355095132909      
0.25487783042       
-1.19991093604      
-1.37782562657      
-1.01935842769      
-1.01820170546      
-0.598434417627     
-0.586296417683     
-0.325588452941     
-0.300372050981     
-0.132113403143     
-0.0883003806642    
0.023836404927      
0.0787280822169     
0.162415303656      
0.222599179663      
0.298936694033      
0.365758518392      
0.454231699121      
0.483207647741      
0.30102675312       
0.115496317072      
-1.85583185192      
-1.71750541363      
-0.636498357446     
-0.559707464619     
-0.400593936899     
-0.31508066298      
-0.246048371228     
-0.200825460022     
-0.165529112132     
-0.133060584753     
-0.0929323986468    
-0.0752383055219    
0.00122806710614    
0.00610930419813    
0.136916820945      
0.151881120757      
0.355254610609      
0.391825005703      
0.339149806236      
0.254730366992      
-1.21016939611      
-1.35366852855      
-1.02056186298      
-1.00288957826      
-0.599037150457     
-0.576566625914     
-0.32862536341      
-0.293518504055     
-0.139263139223     
-0.0831341242171    
0.0132872970586     
0.0823114076969     
0.148931070423      
0.223234932166      
0.280001018358      
0.362263731734      
0.442615984491      
0.474667416304      
0.279183005431      
0.112569743505      
-1.68793167873      
-1.67849722025      
-0.604495505658     
-0.534920356862     
-0.396951656521     
-0.291183998697     
-0.245868433087     
-0.183907120394     
-0.167430906179     
-0.120897253611     
-0.0961159604587    
-0.0675310618926    
-0.000815074027077  
0.0089581233756     
0.136702613596      
0.150711251813      
0.351301315599      
0.388291314517      
0.332358950494      
0.25361203814       
-1.19782366081      
-1.34976393552      
-1.00823422067      
-0.997782581027     
-0.590666973964     
-0.571661513151     
-0.324153605122     
-0.287271985481     
-0.139644014234     
-0.0762774522032    
0.0105412745432     
0.0886295003998     
0.14295339424       
0.227702305403      
0.268617493661      
0.362372754456      
0.430554520631      
0.465720159523      
0.280975993044      
0.12803803487       
-1.195124048        
-1.42492091218      
-0.502081456097     
-0.480057415993     
-0.38237344819      
-0.273123052246     
-0.241133541035     
-0.172956854035     
-0.171862571548     
-0.119105247259     
-0.110307016189     
-0.0695378108732    
-0.0194929813784    
0.00425118522452    
0.127838805223      
0.143683413542      
0.343862619031      
0.382434191048      
0.339454784398      
0.267757683207      
-1.15038687875      
-1.31231930545      
-0.977856575936     
-0.976009645942     
-0.57251162207      
-0.556366970989     
-0.31873749962      
-0.275023896948     
-0.137239803256     
-0.067994161157     
0.0113440700915     
0.095031064335      
0.134258334805      
0.233410804326      
0.241930220236      
0.358547637348      
0.406911541963      
0.457538933802      
0.323408798635      
0.136545802725      
-0.872050158431     
-1.14002833537      
-0.379710753649     
-0.34460777666      
-0.263525170667     
-0.168414261771     
-0.162897194259     
-0.130487099589     
-0.120488788961     
-0.109089719698     
-0.0889275762802    
-0.0746727478121    
-0.0346200867981    
-0.00699034801595   
0.0877856108062     
0.126863460595      
0.317424962623      
0.371154840576      
0.366059850716      
0.305726868386      
-1.05554793362      
-1.21213362566      
-0.925490032051     
-0.915789629652     
-0.521338542679     
-0.503192731699     
-0.252627687884     
-0.227150302156     
-0.0552985590081    
-0.0259103893438    
0.0888249904056     
0.13381708304       
0.195628201034      
0.273571456139      
0.277140710513      
0.395613847006      
0.383698456376      
0.454712673617      
0.462431121603      
0.329121823029      
-0.446082435038     
-0.543507921569     
-0.198349771466     
-0.188077184069     
-0.167596701607     
-0.189139738933     
-0.162845919384     
-0.152634753397     
-0.150643924546     
-0.123519741022     
-0.129378198301     
-0.0915068489144    
-0.0859685619264    
-0.024003802606     
0.0117098758435     
0.121037309011      
0.255072020263      
0.355628044349      
0.431947312067      
0.400101909176      
-0.744538784239     
-0.962221683926     
-0.699193561281     
-0.6691641091       
-0.350559730009     
-0.34080933089      
-0.143183802278     
-0.166399030688     
0.00395212994839    
-0.0362044398392    
0.112314851707      
0.0709800331454     
0.208288781056      
0.179102061084      
0.334097867696      
0.352149286702      
0.429499888395      
0.526296747747      
0.507209321051      
0.561869478945      
-0.349483006494     
-0.464739868865     
-0.297078662649     
-0.420987547856     
-0.274064431891     
-0.388473914564     
-0.261012292452     
-0.351796718137     
-0.249635339547     
-0.317104897575     
-0.240969494802     
-0.276051446387     
-0.224671594908     
-0.198803668996     
-0.158647381146     
0.0265974842027     
0.135751115464      
0.866108414916      
-0.481970588862     
-0.449746266407     
-0.648578904992     
-0.452577535187     
-0.506008652468     
-0.453918490677     
-0.455455404979     
-0.457182362834     
-0.429484079994     
-0.457150531303     
-0.42583770438      
-0.457302447951     
-0.443721965781     
-0.453274192703     
-0.482401423168     
-0.430771480953     
-0.526115847679     
0.451436076486      
-0.567589995079     
-0.417645801038     
-0.657460306266     
-0.415273834327     
-0.522208705137     
-0.433590219324     
-0.476708191659     
-0.454662160751     
-0.457231807462     
-0.475263758751     
-0.463985030335     
-0.502605695566     
-0.497955571952     
-0.536284160493     
-0.559097165604     
-0.577460688053     
-0.644713829805     
-0.0861221616267    
-0.379678233469     
-0.231755275326     
-0.434695223802     
-0.22209095305      