# vtk DataFile Version 3.0
PyPan results file. Generated by PyPan, USU AeroLab (c) 2020.
ASCII
DATASET POLYDATA
POINTS 492 float
-4.75               -4.0                0.0                 
-4.75               4.0                 0.0                 
-4.7255282402       -4.00441503525      -0.00143460487016   
-4.7255282402       -4.00441503525      0.00143460487016    
-4.7255282402       -4.00272893906      -0.00375584419817   
-4.7255282402       -4.00272893906      0.00375584419817    
-4.7255282402       -4.0                -0.00464247865602   
-4.7255282402       -4.0                0.00464247865602    
-4.7255282402       4.0                 -0.00464247865602   
-4.7255282402       4.0                 0.00464247865602    
-4.7255282402       4.00272893906       -0.00375584419817   
-4.7255282402       4.00272893906       0.00375584419817    
-4.7255282402       4.00441503525       -0.00143460487016   
-4.7255282402       4.00441503525       0.00143460487016    
-4.6545085907       -4.01323318481      -0.00429976172745   
-4.6545085907       -4.01323318481      0.00429976172745    
-4.6545085907       -4.00817871094      -0.0112569229677    
-4.6545085907       -4.00817871094      0.0112569229677     
-4.6545085907       -4.0                -0.0139143215492    
-4.6545085907       -4.0                0.0139143215492     
-4.6545085907       4.0                 -0.0139143215492    
-4.6545085907       4.0                 0.0139143215492     
-4.6545085907       4.00817871094       -0.0112569229677    
-4.6545085907       4.00817871094       0.0112569229677     
-4.6545085907       4.01323318481       -0.00429976172745   
-4.6545085907       4.01323318481       0.00429976172745    
-4.65211296082      -3.90211296082      0.0                 
-4.65211296082      3.90211296082       0.0                 
-4.62764120102      -3.90211296082      -0.00464247865602   
-4.62764120102      -3.90211296082      0.00464247865602    
-4.62764120102      3.90211296082       -0.00464247865602   
-4.62764120102      3.90211296082       0.00464247865602    
-4.55662155151      -3.90211296082      -0.0139143215492    
-4.55662155151      -3.90211296082      0.0139143215492     
-4.55662155151      3.90211296082       -0.0139143215492    
-4.55662155151      3.90211296082       0.0139143215492     
-4.54389286041      -4.02558851242      -0.00831415317953   
-4.54389286041      -4.02558851242      0.00831415317953    
-4.54389286041      -4.01581430435      -0.0217667371035    
-4.54389286041      -4.01581430435      0.0217667371035     
-4.54389286041      -4.0                -0.0269051659852    
-4.54389286041      -4.0                0.0269051659852     
-4.54389286041      4.0                 -0.0269051659852    
-4.54389286041      4.0                 0.0269051659852     
-4.54389286041      4.01581430435       -0.0217667371035    
-4.54389286041      4.01581430435       0.0217667371035     
-4.54389286041      4.02558851242       -0.00831415317953   
-4.54389286041      4.02558851242       0.00831415317953    
-4.44600582123      -3.90211296082      -0.0269051659852    
-4.44600582123      -3.90211296082      0.0269051659852     
-4.44600582123      3.90211296082       -0.0269051659852    
-4.44600582123      3.90211296082       0.0269051659852     
-4.4045085907       -4.03891468048      -0.0126441745088    
-4.4045085907       -4.03891468048      0.0126441745088     
-4.4045085907       -4.02405071259      -0.0331028774381    
-4.4045085907       -4.02405071259      0.0331028774381     
-4.4045085907       -4.0                -0.0409174077213    
-4.4045085907       -4.0                0.0409174077213     
-4.4045085907       4.0                 -0.0409174077213    
-4.4045085907       4.0                 0.0409174077213     
-4.4045085907       4.02405071259       -0.0331028774381    
-4.4045085907       4.02405071259       0.0331028774381     
-4.4045085907       4.03891468048       -0.0126441745088    
-4.4045085907       4.03891468048       0.0126441745088     
-4.36803388596      -3.61803388596      0.0                 
-4.36803388596      3.61803388596       0.0                 
-4.34356212616      -3.61803388596      -0.00464247865602   
-4.34356212616      -3.61803388596      0.00464247865602    
-4.34356212616      3.61803388596       -0.00464247865602   
-4.34356212616      3.61803388596       0.00464247865602    
-4.30662155151      -3.90211296082      -0.0409174077213    
-4.30662155151      -3.90211296082      0.0409174077213     
-4.30662155151      3.90211296082       -0.0409174077213    
-4.30662155151      3.90211296082       0.0409174077213     
-4.27254247665      -3.61803388596      -0.0139143215492    
-4.27254247665      -3.61803388596      0.0139143215492     
-4.27254247665      3.61803388596       -0.0139143215492    
-4.27254247665      3.61803388596       0.0139143215492     
-4.25               -4.05034923553      -0.0163594372571    
-4.25               -4.05034923553      0.0163594372571     
-4.25               -4.03111743927      -0.0428295619786    
-4.25               -4.03111743927      0.0428295619786     
-4.25               -4.0                -0.0529402531683    
-4.25               -4.0                0.0529402531683     
-4.25               4.0                 -0.0529402531683    
-4.25               4.0                 0.0529402531683     
-4.25               4.03111743927       -0.0428295619786    
-4.25               4.03111743927       0.0428295619786     
-4.25               4.05034923553       -0.0163594372571    
-4.25               4.05034923553       0.0163594372571     
-4.16192674637      -3.61803388596      -0.0269051659852    
-4.16192674637      -3.61803388596      0.0269051659852     
-4.16192674637      3.61803388596       -0.0269051659852    
-4.16192674637      3.61803388596       0.0269051659852     
-4.15211296082      -3.90211296082      -0.0529402531683    
-4.15211296082      -3.90211296082      0.0529402531683     
-4.15211296082      3.90211296082       -0.0529402531683    
-4.15211296082      3.90211296082       0.0529402531683     
-4.0954914093       -4.05665874481      -0.0184096004814    
-4.0954914093       -4.05665874481      0.0184096004814     
-4.0954914093       -4.03501701355      -0.0481969565153    
-4.0954914093       -4.03501701355      0.0481969565153     
-4.0954914093       -4.0                -0.0595747157931    
-4.0954914093       -4.0                0.0595747157931     
-4.0954914093       4.0                 -0.0595747157931    
-4.0954914093       4.0                 0.0595747157931     
-4.0954914093       4.03501701355       -0.0481969565153    
-4.0954914093       4.03501701355       0.0481969565153     
-4.0954914093       4.05665874481       -0.0184096004814    
-4.0954914093       4.05665874481       0.0184096004814     
-4.02254247665      -3.61803388596      -0.0409174077213    
-4.02254247665      -3.61803388596      0.0409174077213     
-4.02254247665      3.61803388596       -0.0409174077213    
-4.02254247665      3.61803388596       0.0409174077213     
-3.99760460854      -3.90211296082      -0.0595747157931    
-3.99760460854      -3.90211296082      0.0595747157931     
-3.99760460854      3.90211296082       -0.0595747157931    
-3.99760460854      3.90211296082       0.0595747157931     
-3.95610737801      -4.05488920212      -0.0178346466273    
-3.95610737801      -4.05488920212      0.0178346466273     
-3.95610737801      -4.03392362595      -0.046691711992     
-3.95610737801      -4.03392362595      0.046691711992      
-3.95610737801      -4.0                -0.0577141307294    
-3.95610737801      -4.0                0.0577141307294     
-3.95610737801      4.0                 -0.0577141307294    
-3.95610737801      4.0                 0.0577141307294     
-3.95610737801      4.03392362595       -0.046691711992     
-3.95610737801      4.03392362595       0.046691711992      
-3.95610737801      4.05488920212       -0.0178346466273    
-3.95610737801      4.05488920212       0.0178346466273     
-3.92557048798      -3.17557048798      0.0                 
-3.92557048798      3.17557048798       0.0                 
-3.90109872818      -3.17557048798      -0.00464247865602   
-3.90109872818      -3.17557048798      0.00464247865602    
-3.90109872818      3.17557048798       -0.00464247865602   
-3.90109872818      3.17557048798       0.00464247865602    
-3.86803388596      -3.61803388596      -0.0529402531683    
-3.86803388596      -3.61803388596      0.0529402531683     
-3.86803388596      3.61803388596       -0.0529402531683    
-3.86803388596      3.61803388596       0.0529402531683     
-3.85822033882      -3.90211296082      -0.0577141307294    
-3.85822033882      -3.90211296082      0.0577141307294     
-3.85822033882      3.90211296082       -0.0577141307294    
-3.85822033882      3.90211296082       0.0577141307294     
-3.8454914093       -4.0437951088       -0.0142299029976    
-3.8454914093       -4.0437951088       0.0142299029976     
-3.8454914093       -4.02706670761      -0.037254370749     
-3.8454914093       -4.02706670761      0.037254370749      
-3.8454914093       -4.0                -0.0460489317775    
-3.8454914093       -4.0                0.0460489317775     
-3.8454914093       4.0                 -0.0460489317775    
-3.8454914093       4.0                 0.0460489317775     
-3.8454914093       4.02706670761       -0.037254370749     
-3.8454914093       4.02706670761       0.037254370749      
-3.8454914093       4.0437951088        -0.0142299029976    
-3.8454914093       4.0437951088        0.0142299029976     
-3.83007907867      -3.17557048798      -0.0139143215492    
-3.83007907867      -3.17557048798      0.0139143215492     
-3.83007907867      3.17557048798       -0.0139143215492    
-3.83007907867      3.17557048798       0.0139143215492     
-3.7744717598       -4.0246257782       -0.00800147373229   
[...]
CELL_DATA 980
SCALARS pressure_coefficient float 1
LOOKUP_TABLE default
-5.77862214746      
-5.16424035051      
-1.3698345421       
-1.08563502868      
-0.60842994548      
-0.383244193925     
-0.251784832492     
-0.142078402842     
-0.0672726853408    
-0.0220633616606    
0.0812968637702     
0.114899775566      
0.205285158578      
0.265214161801      
0.344373666893      
0.42582497284       
0.610873729036      
0.610004114364      
0.323583839657      
0.254890748457      
-1.37857216859      
-1.44070373201      
-0.970371878166     
-1.03522510765      
-0.690991217242     
-0.71360060257      
-0.355151213452     
-0.380625583442     
-0.122415061712     
-0.109461726979     
0.0134352512953     
0.0406295979344     
0.241582369326      
0.275382254902      
0.543355857766      
0.623606702491      
0.809391631211      
0.85031680841       
-0.805646998808     
-3.96599037745      
-4.14088078519      
-3.55591369038      
-1.10575295882      
-1.07147102748      
-0.539540346521     
-0.487575805189     
-0.286138677802     
-0.218698798229     
-0.132696469129     
-0.0567373327972    
-0.00749348967818   
0.0669171288634     
0.12888645467       
0.189442731305      
0.320855237244      
0.330426387998      
0.493815660424      
0.508495334166      
0.0350864116066     
-0.0578913118177    
-2.03083738626      
-2.26991545218      
-1.36382001356      
-1.50083082088      
-0.733060121589     
-0.852916531133     
-0.3924231785       
-0.445136785791     
-0.116903274784     
-0.14998978817      
0.116503550562      
0.109029690342      
0.311596772125      
0.342333265287      
0.475101742842      
0.525946710318      
0.573151331351      
0.589364965745      
-0.236189349089     
-1.12752289407      
-3.78202690549      
-2.98924887184      
-1.01045616047      
-0.87244349181      
-0.50294325433      
-0.43777554115      
-0.284440098456     
-0.245423871153     
-0.155101023402     
-0.117804826746     
-0.0448199655927    
-0.00704648553275   
0.0869387752009     
0.114913411597      
0.260514685779      
0.288431191815      
0.45733280276       
0.493634699604      
0.0485208393961     
-0.210960741699     
-2.05106166609      
-2.44270376536      
-1.37052163636      
-1.478298604        
-0.711392881743     
-0.789171111933     
-0.336973374454     
-0.367254347098     
-0.0846876380044    
-0.0736960750316    
0.111474655702      
0.141982375432      
0.276038562538      
0.317714972764      
0.429133493572      
0.473915075013      
0.536872604117      
0.55101690218       
-0.0598259273721    
-0.56208508038      
-3.61501350702      
-2.84559492252      
-0.981305807702     
-0.836601175235     
-0.498365565381     
-0.427982079333     
-0.282089954594     
-0.243468127431     
-0.157684627721     
-0.12826063188      
-0.0509386011483    
-0.0287886014339    
0.0755947725353     
0.0923618362541     
0.242232154309      
0.272834076413      
0.455252466393      
0.489541765945      
0.0933823195616     
-0.142352541778     
-1.98112574213      
-2.26866704042      
-1.34906132827      
-1.37211584711      
-0.70864359658      
-0.716659669286     
-0.337541447503     
-0.326714232723     
-0.0906346782704    
-0.0576973002067    
0.0995971178595     
0.142290704678      
0.261295020717      
0.307403418008      
0.41367959114       
0.459288197228      
0.528490987014      
0.541555807538      
-0.0373551217205    
-0.48674893767      
-3.3880651861       
-2.75269052358      
-0.957735617192     
-0.8300674393       
-0.513550914642     
-0.437437297577     
-0.28775836539      
-0.248241644012     
-0.161792770621     
-0.132758239857     
-0.0528228875672    
-0.0338206880841    
0.0751742842665     
0.0873191495453     
0.241853433082      
0.266784921513      
0.455909108121      
0.485224176242      
0.0921272419237     
-0.0967209112543    
-1.96769576708      
-2.14660182239      
-1.34592896483      
-1.31500851288      
-0.711452254891     
-0.686349750421     
-0.344394894965     
-0.312573226102     
-0.100414996637     
-0.0536333141973    
0.0866744548907     
0.141063131213      
0.246423208324      
0.302376872637      
0.396328234291      
0.450916663624      
0.521857737814      
0.535313654494      
-0.0685809577576    
-0.518663274014     
-3.18081789461      
-2.70386443342      
-0.930201970589     
-0.812480961164     
-0.520860341076     
-0.425821655392     
-0.290090691225     
-0.239743375095     
-0.163521558563     
-0.126791136125     
-0.05299627937      
-0.0304593099465    
0.0773443192729     
0.088159035374      
0.244079141422      
0.264821367936      
0.45376525558       
0.480898515578      
0.0749520971791     
-0.0886516194803    
-1.97173279894      
-2.10953967374      
-1.34423210363      
-1.29537055378      
-0.71102998787      
-0.675129294198     
-0.34696198887      
-0.305533586525     
-0.106766459243     
-0.0490919585648    
0.0774574818349     
0.143573218884      
0.234925218762      
0.30187454686       
0.381348038889      
0.446393393126      
0.513360111455      
0.527180286767      
-0.0916323922586    
-0.515644542976     
-2.92307422876      
-2.62580239494      
-0.885971417413     
-0.782703070662     
-0.517412973999     
-0.404181545184     
-0.290483580982     
-0.225099539048     
-0.166585856486     
-0.116973595909     
-0.0574223507487    
-0.0247759225639    
0.0743824369295     
0.08951540634       
0.243116346903      
0.262773958593      
0.449169825409      
0.47746765739       
0.0706900545547     
-0.0839112915419    
-1.95052626601      
-2.09473172476      
-1.32802161172      
-1.28554889892      
-0.701266797312     
-0.668067768623     
-0.342351053032     
-0.298635419289     
-0.107525175816     
-0.0426775489189    
0.0740602466103     
0.148614220737      
0.228232413508      
0.30447133758       
0.369877271239      
0.444141737762      
0.504668162587      
0.519354324051      
-0.0766570042813    
-0.488711934446     
-2.15685228508      
-2.25067785696      
-0.740415046997     
-0.707449243348     
-0.497978876415     
-0.384427052067     
-0.285925501472     
-0.214944133964     
-0.174492118126     
-0.116907122396     
-0.0756845821591    
-0.0283455824295    
0.0531385660817     
0.0838121837307     
0.233466988147      
0.255741467114      
0.442556592973      
0.47399891901       
0.0900894388503     
-0.0570754534053    
-1.8770314967       
-2.04075606049      
-1.28534957423      
-1.25708547149      
-0.676787616023     
-0.649382285899     
-0.333341353754     
-0.284171841857     
-0.103160442068     
-0.0328366431005    
0.0752426646069     
0.155773445621      
0.219131543035      
0.309703741147      
0.344545198853      
0.440171228821      
0.491765233222      
0.513673468145      
0.0247113393218     
-0.451812630896     
-1.49305880229      
-1.76101440816      
-0.537156046582     
-0.51469894921      
-0.344962973053     
-0.256904485344     
-0.19607898956      
-0.166477734525     
-0.124197221116     
-0.1082274266       
-0.0632784806079    
-0.0383689109212    
0.0258285860023     
0.0673806318223     
0.186578048412      
0.236549824036      
0.420424437034      
0.467638381252      
0.15141462196       
0.0125371519889     
-1.71674219099      
-1.89983468328      
-1.20028522416      
-1.17953511101      
-0.606564112259     
-0.585880338036     
-0.254057427008     
-0.228695873142     
-0.0132978739751    
0.0156768623563     
0.154969657165      
0.200057280996      
0.27787122242       
0.353705558358      
0.373629207324      
0.478375898623      
0.480257228392      
0.526149741979      
0.35828401214       
-0.0328349620458    
-0.713068551819     
-0.876444157109     
-0.277255326887     
-0.294849837074     
-0.212672406499     
-0.243942320682     
-0.186730814429     
-0.175202975286     
-0.156983044163     
-0.123620148299     
-0.116366484205     
-0.0672772433277    
-0.0474095933247    
0.0315484356972     
0.0848292645286     
0.212617096776      
0.358941458504      
0.455302736989      
0.283140512072      
0.180269374652      
-1.29129940817      
-1.56463113852      
-0.92424141115      
-0.891168466498     
-0.416905856036     
-0.406048012994     
-0.145900916793     
-0.165263433977     
0.0335909743846     
0.00135618351066    
0.161563822255      
0.132438023321      
0.272973750744      
0.260220421096      
0.416360338512      
0.452405099244      
0.532488880368      
0.635201780686      
0.57434709207       
0.521660988493      
-0.53590807022      
-0.654579625018     
-0.397880402508     
-0.582178374111     
-0.363061063908     
-0.527273431442     
-0.343917501265     
-0.467054501042     
-0.322468765154     
-0.410348556862     
-0.300000639857     
-0.34634215895      
-0.263827206758     
-0.240668595326     
-0.162791134641     
0.0340069392097     
0.200530000936      
0.854830643214      
-0.856713894        
-0.732681217159     
-1.02562690133      
-0.710994335671     
-0.798389424518     
-0.694004015297     
-0.703295461793     
-0.683672407209     
-0.648456898536     
-0.670691298146     
-0.62626189444      
-0.662704845347     
-0.636371674801     
-0.660946853056     
-0.68425911664      
-0.660865605326     
-0.762215618475     
0.220106268594      
-1.0669321223       
-0.751354464997     
-1.06634269946      
-0.696096869577     
-0.852121206282     
-0.696030725209     
-0.763445491466     
-0.707015862039     
-0.716438516588     
-0.720410363737     
-0.707710354702     
-0.748444552733     
-0.739921817143     
-0.797735261516     
-0.820141979633     
-0.883227390419     
-0.947243285434     
-0.539755552596     
-0.745855753774     
-0.483874182409     
-0.728730021868     
-0.405969843707     
-0.578805441786     
-0.430663521977     
-0.533005414255     
-0.469235911077     
-0.51878412991      
-0.516286219774     
-0.54060748988      
-0.587158606875     
-0.604717908127     
-0.692983655339     
-0.719223107598     
-0.880042714736     
-0.925607101316     
-1.07283889337      
-0.0139802690828    
-0.101775948191     
-0.357075886698     
-0.0114474628565    
-0.275965998542     
-0.0640988786163    
-0.254397207144     
-0.140080904016     
-0.26412236175      
-0.222685821588     
-0.313550177911     
-0.331202657209     
-0.42038030428      
-0.487554887461     
-0.614175942958     
-0.76242109813      
-1.00511194112      
-1.11181498459      
-5.77864687508      
-5.16424456156      
-1.36983496851      
-1.08564192577      
-0.608430532826     
-0.383245317964     
-0.251784558808     
-0.142078291121     
-0.0672721136393    
-0.022062974325     
0.0812966909607     
0.114899286095      
0.205285095689      
0.265213461819      
0.344374033633      
0.425824407919      
0.610873186009      
0.610004586022      
0.323585766294      
0.254892873172      
-1.37857303706      
-1.44070496839      
-0.970374540479     
-1.03522787588      
-0.690991174794     
-0.713601708187     
-0.355151612768     
-0.380626951793     
-0.122415275698     
-0.109463273888     
0.0134358598402     
0.0406287075803     
0.241582391333      
0.275381145342      
0.543354133973      
0.623603442088      
0.809390241058      
0.850315651419      
-0.805644736024     
-3.96594628069      
-4.14088968262      
-3.55592048116      
-1.105755487        
-1.07147685473      
-0.53954144659      
-0.487581172701     
-0.286139689291     
-0.218702146312     
-0.132697351343     
-0.0567394282321    
-0.00749400297412   
0.0669158118123     
0.128885834837      
0.189441854472      
0.320854165019      
0.330426374809      
0.493815981891      
0.508496226905      
0.0350899470281     
-0.0578883920379    
-2.03083966211      
-2.26991136059      
-1.36382227975      
-1.50082871515      
-0.733062182936     
-0.852915788139     
-0.392423863582     
-0.445136872817     
-0.116903796563     
-0.149990288748     
0.116502928408      
0.109028767536      
0.311596449273      
0.342332348852      
0.47510224314       
0.525946863248      
0.573152712802      
0.589366369784      
-0.236186480803     
-1.12753268183      
-3.78203303605      
-2.98924947244      
-1.01045877435      
-0.872447419439     
-0.502943571945     
-0.437779258651     
-0.284440290903     
-0.24542595361      
-0.155101119382     
-0.117806207699     
-0.0448201702681    
-0.00704729464329   
0.0869381970846     
0.114913002515      
0.260514200074      
0.288431236599      
0.457333539531      
0.493635295005      
0.0485232363623     
-0.210957049991     
-2.05105958409      
-2.44269589133      
-1.37052485081      
-1.47829632389      
-0.71139489581      
-0.789169729954     
-0.336974728436     
-0.367254053498     
-0.0846883079471    
-0.0736964925884    
0.111474463153      
0.141982002487      
0.276038961336      
0.317714838604      
0.429134211413      
0.47391524827       
0.536873745029      
0.551018170072      
-0.0598241114983    
-0.562090934699     
-3.61501572162      
-2.84559243371      
-0.981307808164     
-0.836604358705     
-0.498366309544     
-0.427985500942     
-0.282090171633     
-0.243469984775     
-0.157684743374     
-0.128261863662     
-0.0509386132972    
-0.0287892087502    
0.0755946000456     
0.0923615752553     
0.242232158743      
0.272834063409      
0.455253061846      
0.489542090534      
0.0933840401236     
-0.142349008218     
-1.98113136366      
-2.26866416166      
-1.34906250025      
-1.3721136428       
-0.708644009296     
-0.716658351681     
-0.337542291442     
-0.326714004878     
-0.0906353041242    
-0.0576976377646    
0.0995970133201     
0.14229039726       
0.261295174503      
0.307403265871      
0.413679741626      
0.459287996978      
0.528491783476      
0.541556663352      
-0.03735665295      
-0.486755276596     
-3.38806677422      
-2.75268590853      
-0.957736088939     
-0.83006900397      
-0.513550746188     
-0.437439426476     
-0.287758504324     
-0.248242877904     
-0.161792642308     
-0.132759040127     
-0.0528227599772    
-0.033821003771     
0.0751742784845     
0.0873189305754     
0.241853596681      
0.266784859553      
0.455909582537      
0.485224389783      
0.0921274794074     
-0.0967198651855    
-1.96769699221      
-2.14660024667      
-1.34592675659      
-1.31500550695      
-0.711452419474     
-0.686349304169     
-0.344395224348     
-0.312573293272     
-0.100415283307     
-0.0536337785224    
0.0866745593259     
0.141062912144      
0.246423657397      
0.302376835401      
0.396328868282      
0.450916883101      
0.521858367551      
0.535314293952      
-0.0685801721336    
-0.518667025643     
-3.18081759974      
-2.70385897128      
-0.930208562396     
-0.812485081182     
-0.520863660189     
-0.425824040928     
-0.290090626558     
-0.239744351757     
-0.163521370842     
-0.126791652571     
-0.0529961264207    
-0.0304594587966    
0.0773441308638     
0.0881589530044     
0.244079183718      
0.264821341426      
0.453765596338      
0.480898746974      
0.0749534011353     
-0.088652400819     
-1.97173053181      
-2.10953863329      
-1.34423040296      
-1.29537013469      
-0.71103047693      
-0.675128717369     
-0.346962344715     
-0.305533790852     
-0.106766947355     
-0.049092535309     
0.0774571475118     
0.143572819243      
0.234925359781      
0.301874359699      
0.381348319927      
0.446393647207      
0.513360235437      
0.527180811476      
-0.0916334686583    
-0.515649758131     
-2.92304377988      
-2.62579681042      
-0.885973487695     
-0.782703115998     
-0.517413783087     
-0.404181933741     
-0.290483051476     
-0.225099394617     
-0.166585138123     
-0.116973308793     
-0.0574214614198    
-0.0247756053996    
0.0743832161766     
0.0895154508285     
0.243116682211      
0.262774144319      
0.449170502352      
0.477467805535      
0.0706846283152     
-0.0839196842655    
-1.95054479271      
-2.09474996754      
-1.3280236941       
-1.28554496022      
-0.701266450368     
-0.668067360644     
-0.342351113116     
-0.298635371889     
-0.107525734589     
-0.0426779079498    
0.0740604834897     
0.148614391177      
0.228232241756      
0.304471268157      
0.36987760794       
0.444142301572      
0.504668554247      
0.519354536201      
-0.0766599714422    
-0.488720842927     
-2.15686561788      
-2.25068798281      
-0.740414718942     
-0.707449071716     
-0.497977232751     
-0.384427852762     
-0.285925829886     
-0.214944919578     
-0.174492449163     
-0.116906917109     
-0.0756839530095    
-0.0283450894329    
0.0531391464285     
0.0838124822554     
0.23346685435       
0.255741383794      
0.442556464303      
0.473998977786      
0.0900890516638     
-0.0570736009938    
-1.87704193469      
-2.04076955442      
-1.28534597445      
-1.25708708074      
-0.676786839433     
-0.6493824439       
-0.33334213398      
-0.284172452692     
-0.103161387972     
-0.0328372072284    
0.075241990551      
0.155773134093      
0.219131469438      
0.309704078928      
0.344544924398      
0.440170667096      
0.491765668584      
0.513673353711      
0.0247086024509     
-0.451813131669     
-1.49309089356      
-1.76104124358      
-0.537165247313     
-0.514701924133     
-0.344964958011     
-0.256904684044     
-0.196078860147     
-0.166477532046     
-0.124196898475     
-0.108227290185     
-0.0632778827915    
-0.0383677306905    
0.0258299271088     
0.0673817317687     
0.186577994589      
0.236549820286      
0.420424975071      
0.467638380464      
0.151414376775      
0.0125393712686     
-1.7167567706       
-1.89985180614      
-1.2002883775       
-1.1795383748       
-0.606565468476     
-0.585880470899     
-0.254058646902     
-0.228696420698     
-0.01329844013      
0.015675972463      
0.15497072718       
0.2000579694        
0.277873781223      
0.353706991129      
0.373632447804      
0.478376579006      
0.48025879824       
0.526149369077      
0.358283501663      
-0.0328350233157    
-0.713093287538     
-0.876467046253     
-0.277260971911     
-0.294859261359     
-0.212675420317     
-0.243945535223     
-0.186729819568     
-0.175204165123     
-0.156981383716     
-0.123621058436     
-0.116366222919     
-0.0672770758986    
-0.0474090863394    
0.0315494884321     
0.084830015871      
0.212618225581      
0.35894444164       
0.455304194387      
0.283141084539      
0.18026984812       
-1.2913092091       
-1.56463769326      
-0.924245274461     
-0.891173020235     
-0.416907116193     
-0.406047937556     
-0.145900254067     
-0.16526342737      
0.0335927365549     
0.00135617019671    
0.161563321211      
0.132436891008      
0.272972181644      
0.260219853206      
0.416359549294      
0.45240397171       
0.532490147445      
0.635202498086      
0.574349283432      
0.52166000697       
-0.535904129319     
-0.654500812173     
-0.397885782828     
-0.582216300663     
-0.363064715347     
-0.527269811618     
-0.343915584512     
-0.467053075119     
-0.322468832274     
-0.410346803691     
-0.299999883694     
-0.346341231172     
-0.26382732757      
-0.240672930386     
-0.162787935741     
0.03399968595       
0.200532928265      
0.85481917511       
-0.856785560714     
-0.73249455154      
-1.02565055642      
-0.71105108736      
-0.798421435531     
-0.694007916706     
-0.703307264005     
-0.683662878882     
-0.648459237207     
-0.670689576492     
-0.626266431738     
-0.662708323513     
-0.63638049767      
-0.660935688161     
-0.684267003019     
-0.66086920733      
-0.762198872466     
0.220102059767      
-1.06703014216      
-0.751455831721     
-1.06636326544      
-0.696119243823     
-0.85214614451      
-0.696059613204     
-0.763457864744     
-0.707031893607     
-0.716441155142     
-0.720414886783     
-0.70771169918      
-0.748446553382     
-0.739930034211     
-0.797742903202     
-0.820152490155     
-0.883252895967     
-0.947257023659     
-0.539792735068     
-0.745860492806     
-0.483771479168     
-0.728763891384     
-0.405970628546     