# vtk DataFile Version 3.0
PyPan results file. Generated by PyPan, USU AeroLab (c) 2020.
ASCII
DATASET POLYDATA
POINTS 492 float
-4.75               -4.0                0.0                 
-4.75               4.0                 0.0                 
-4.7255282402       -4.00441503525      -0.00143460487016   
-4.7255282402       -4.00441503525      0.00143460487016    
-4.7255282402       -4.00272893906      -0.00375584419817   
-4.7255282402       -4.00272893906      0.00375584419817    
-4.7255282402       -4.0                -0.00464247865602   
-4.7255282402       -4.0                0.00464247865602    
-4.7255282402       4.0                 -0.00464247865602   
-4.7255282402       4.0                 0.00464247865602    
-4.7255282402       4.00272893906       -0.00375584419817   
-4.7255282402       4.00272893906       0.00375584419817    
-4.7255282402       4.00441503525       -0.00143460487016   
-4.7255282402       4.00441503525       0.00143460487016    
-4.6545085907       -4.01323318481      -0.00429976172745   
-4.6545085907       -4.01323318481      0.00429976172745    
-4.6545085907       -4.00817871094      -0.0112569229677    
-4.6545085907       -4.00817871094      0.0112569229677     
-4.6545085907       -4.0                -0.0139143215492    
-4.6545085907       -4.0                0.0139143215492     
-4.6545085907       4.0                 -0.0139143215492    
-4.6545085907       4.0                 0.0139143215492     
-4.6545085907       4.00817871094       -0.0112569229677    
-4.6545085907       4.00817871094       0.0112569229677     
-4.6545085907       4.01323318481       -0.00429976172745   
-4.6545085907       4.01323318481       0.00429976172745    
-4.65211296082      -3.90211296082      0.0                 
-4.65211296082      3.90211296082       0.0                 
-4.62764120102      -3.90211296082      -0.00464247865602   
-4.62764120102      -3.90211296082      0.00464247865602    
-4.62764120102      3.90211296082       -0.00464247865602   
-4.62764120102      3.90211296082       0.00464247865602    
-4.55662155151      -3.90211296082      -0.0139143215492    
-4.55662155151      -3.90211296082      0.0139143215492     
-4.55662155151      3.90211296082       -0.0139143215492    
-4.55662155151      3.90211296082       0.0139143215492     
-4.54389286041      -4.02558851242      -0.00831415317953   
-4.54389286041      -4.02558851242      0.00831415317953    
-4.54389286041      -4.01581430435      -0.0217667371035    
-4.54389286041      -4.01581430435      0.0217667371035     
-4.54389286041      -4.0                -0.0269051659852    
-4.54389286041      -4.0                0.0269051659852     
-4.54389286041      4.0                 -0.0269051659852    
-4.54389286041      4.0                 0.0269051659852     
-4.54389286041      4.01581430435       -0.0217667371035    
-4.54389286041      4.01581430435       0.0217667371035     
-4.54389286041      4.02558851242       -0.00831415317953   
-4.54389286041      4.02558851242       0.00831415317953    
-4.44600582123      -3.90211296082      -0.0269051659852    
-4.44600582123      -3.90211296082      0.0269051659852     
-4.44600582123      3.90211296082       -0.0269051659852    
-4.44600582123      3.90211296082       0.0269051659852     
-4.4045085907       -4.03891468048      -0.0126441745088    
-4.4045085907       -4.03891468048      0.0126441745088     
-4.4045085907       -4.02405071259      -0.0331028774381    
-4.4045085907       -4.02405071259      0.0331028774381     
-4.4045085907       -4.0                -0.0409174077213    
-4.4045085907       -4.0                0.0409174077213     
-4.4045085907       4.0                 -0.0409174077213    
-4.4045085907       4.0                 0.0409174077213     
-4.4045085907       4.02405071259       -0.0331028774381    
-4.4045085907       4.02405071259       0.0331028774381     
-4.4045085907       4.03891468048       -0.0126441745088    
-4.4045085907       4.03891468048       0.0126441745088     
-4.36803388596      -3.61803388596      0.0                 
-4.36803388596      3.61803388596       0.0                 
-4.34356212616      -3.61803388596      -0.00464247865602   
-4.34356212616      -3.61803388596      0.00464247865602    
-4.34356212616      3.61803388596       -0.00464247865602   
-4.34356212616      3.61803388596       0.00464247865602    
-4.30662155151      -3.90211296082      -0.0409174077213    
-4.30662155151      -3.90211296082      0.0409174077213     
-4.30662155151      3.90211296082       -0.0409174077213    
-4.30662155151      3.90211296082       0.0409174077213     
-4.27254247665      -3.61803388596      -0.0139143215492    
-4.27254247665      -3.61803388596      0.0139143215492     
-4.27254247665      3.61803388596       -0.0139143215492    
-4.27254247665      3.61803388596       0.0139143215492     
-4.25               -4.05034923553      -0.0163594372571    
-4.25               -4.05034923553      0.0163594372571     
-4.25               -4.03111743927      -0.0428295619786    
-4.25               -4.03111743927      0.0428295619786     
-4.25               -4.0                -0.0529402531683    
-4.25               -4.0                0.0529402531683     
-4.25               4.0                 -0.0529402531683    
-4.25               4.0                 0.0529402531683     
-4.25               4.03111743927       -0.0428295619786    
-4.25               4.03111743927       0.0428295619786     
-4.25               4.05034923553       -0.0163594372571    
-4.25               4.05034923553       0.0163594372571     
-4.16192674637      -3.61803388596      -0.0269051659852    
-4.16192674637      -3.61803388596      0.0269051659852     
-4.16192674637      3.61803388596       -0.0269051659852    
-4.16192674637      3.61803388596       0.0269051659852     
-4.15211296082      -3.90211296082      -0.0529402531683    
-4.15211296082      -3.90211296082      0.0529402531683     
-4.15211296082      3.90211296082       -0.0529402531683    
-4.15211296082      3.90211296082       0.0529402531683     
-4.0954914093       -4.05665874481      -0.0184096004814    
-4.0954914093       -4.05665874481      0.0184096004814     
-4.0954914093       -4.03501701355      -0.0481969565153    
-4.0954914093       -4.03501701355      0.0481969565153     
-4.0954914093       -4.0                -0.0595747157931    
-4.0954914093       -4.0                0.0595747157931     
-4.0954914093       4.0                 -0.0595747157931    
-4.0954914093       4.0                 0.0595747157931     
-4.0954914093       4.03501701355       -0.0481969565153    
-4.0954914093       4.03501701355       0.0481969565153     
-4.0954914093       4.05665874481       -0.0184096004814    
-4.0954914093       4.05665874481       0.0184096004814     
-4.02254247665      -3.61803388596      -0.0409174077213    
-4.02254247665      -3.61803388596      0.0409174077213     
-4.02254247665      3.61803388596       -0.0409174077213    
-4.02254247665      3.61803388596       0.0409174077213     
-3.99760460854      -3.90211296082      -0.0595747157931    
-3.99760460854      -3.90211296082      0.0595747157931     
-3.99760460854      3.90211296082       -0.0595747157931    
-3.99760460854      3.90211296082       0.0595747157931     
-3.95610737801      -4.05488920212      -0.0178346466273    
-3.95610737801      -4.05488920212      0.0178346466273     
-3.95610737801      -4.03392362595      -0.046691711992     
-3.95610737801      -4.03392362595      0.046691711992      
-3.95610737801      -4.0                -0.0577141307294    
-3.95610737801      -4.0                0.0577141307294     
-3.95610737801      4.0                 -0.0577141307294    
-3.95610737801      4.0                 0.0577141307294     
-3.95610737801      4.03392362595       -0.046691711992     
-3.95610737801      4.03392362595       0.046691711992      
-3.95610737801      4.05488920212       -0.0178346466273    
-3.95610737801      4.05488920212       0.0178346466273     
-3.92557048798      -3.17557048798      0.0                 
-3.92557048798      3.17557048798       0.0                 
-3.90109872818      -3.17557048798      -0.00464247865602   
-3.90109872818      -3.17557048798      0.00464247865602    
-3.90109872818      3.17557048798       -0.00464247865602   
-3.90109872818      3.17557048798       0.00464247865602    
-3.86803388596      -3.61803388596      -0.0529402531683    
-3.86803388596      -3.61803388596      0.0529402531683     
-3.86803388596      3.61803388596       -0.0529402531683    
-3.86803388596      3.61803388596       0.0529402531683     
-3.85822033882      -3.90211296082      -0.0577141307294    
-3.85822033882      -3.90211296082      0.0577141307294     
-3.85822033882      3.90211296082       -0.0577141307294    
-3.85822033882      3.90211296082       0.0577141307294     
-3.8454914093       -4.0437951088       -0.0142299029976    
-3.8454914093       -4.0437951088       0.0142299029976     
-3.8454914093       -4.02706670761      -0.037254370749     
-3.8454914093       -4.02706670761      0.037254370749      
-3.8454914093       -4.0                -0.0460489317775    
-3.8454914093       -4.0                0.0460489317775     
-3.8454914093       4.0                 -0.0460489317775    
-3.8454914093       4.0                 0.0460489317775     
-3.8454914093       4.02706670761       -0.037254370749     
-3.8454914093       4.02706670761       0.037254370749      
-3.8454914093       4.0437951088        -0.0142299029976    
-3.8454914093       4.0437951088        0.0142299029976     
-3.83007907867      -3.17557048798      -0.0139143215492    
-3.83007907867      -3.17557048798      0.0139143215492     
-3.83007907867      3.17557048798       -0.0139143215492    
-3.83007907867      3.17557048798       0.0139143215492     
-3.7744717598       -4.0246257782       -0.00800147373229   
[...]
CELL_DATA 980
SCALARS pressure_coefficient float 1
LOOKUP_TABLE default
-8.26794021002      
-7.28300038014      
-1.77235369274      
-1.3897358747       
-0.730858598802     
-0.438753732956     
-0.267676460675     
-0.120974391854     
-0.0295338632433    
0.0396091486296     
0.150569059108      
0.196496105808      
0.300235005035      
0.365656180598      
0.462196470313      
0.540625731044      
0.703006175849      
0.688271052389      
0.0582411494568     
-0.000618061361372  
-2.02684557342      
-1.95845076892      
-1.2288517024       
-1.24743225557      
-0.794181693389     
-0.804985948443     
-0.383130438023     
-0.406582624746     
-0.107003387005     
-0.0913828958209    
0.0604593038189     
0.0892560202549     
0.317491053938      
0.354168010759      
0.642725447361      
0.725442345608      
0.828300533704      
0.765488347063      
-1.99280185337      
-7.0538216311       
-5.97430318109      
-5.04342940915      
-1.45797910274      
-1.42678224856      
-0.667688580422     
-0.610474033693     
-0.322684493057     
-0.238665388841     
-0.117615167122     
-0.0239409022975    
0.0465733479061     
0.134784631987      
0.215182299615      
0.28302209418       
0.423448378831      
0.435384103858      
0.545247151458      
0.556041846435      
-0.381858280339     
-0.491295158918     
-2.90883714324      
-3.03449801372      
-1.70415467624      
-1.78791444688      
-0.850622149978     
-0.956560259577     
-0.415963922027     
-0.466258225515     
-0.0871030644265    
-0.121305741812     
0.180010969758      
0.173660239609      
0.394494247365      
0.429287858499      
0.556250973185      
0.601934011479      
0.587037543398      
0.562528622484      
-0.947934113906     
-2.5084936863       
-5.45132881237      
-4.21358507465      
-1.33679302769      
-1.1651045767       
-0.628948102879     
-0.558411169312     
-0.32395015709      
-0.279890757534     
-0.145015203175     
-0.100369952597     
0.00395058721716    
0.0497732533209     
0.169564843492      
0.203063968963      
0.362517673801      
0.390452785413      
0.512155592852      
0.521662948142      
-0.384627128759     
-0.756034423883     
-2.96671640682      
-3.33943829453      
-1.71829229783      
-1.79046256464      
-0.819362077129     
-0.884575725243     
-0.347734213214     
-0.37047038954      
-0.0464898610839    
-0.0297229030558    
0.177119394324      
0.211205017446      
0.356336157586      
0.39779998649       
0.507639860948      
0.54379632255       
0.559149948371      
0.549448832393      
-0.650132025261     
-1.58544856775      
-5.24060797457      
-4.0140930495       
-1.29974854498      
-1.11085079432      
-0.620049985331     
-0.538502417308     
-0.319405360924     
-0.27419414117      
-0.146554865088     
-0.111472970551     
-0.00179806059606   
0.0254688806069     
0.158168539991      
0.178624584367      
0.345104220031      
0.375516975588      
0.515744976088      
0.524095622065      
-0.320336107834     
-0.673129753849     
-2.87724115562      
-3.16132727328      
-1.6901881243       
-1.67948241329      
-0.813184772924     
-0.807087352443     
-0.345454506247     
-0.326766429198     
-0.0507444914802    
-0.0130048669498    
0.166144066407      
0.210370497108      
0.342173630862      
0.386058501472      
0.4933836398        
0.529045039549      
0.553380600311      
0.545532005784      
-0.602473344119     
-1.43199882938      
-4.99923665689      
-3.90564797513      
-1.27383540917      
-1.09824720803      
-0.630999764609     
-0.543068315672     
-0.322808631818     
-0.276403024063     
-0.149211010521     
-0.114626122986     
-0.00313277131898   
0.0209988372751     
0.157074154149      
0.173781570168      
0.343644596912      
0.370269920418      
0.516828490803      
0.525206286292      
-0.314266681871     
-0.604962565488     
-2.85105869255      
-3.01778061854      
-1.6828067623       
-1.6172206474       
-0.814502564219     
-0.775569723105     
-0.350984990282     
-0.31267944381      
-0.0586259089235    
-0.00944624462153   
0.155595464982      
0.208672462118      
0.33023996703       
0.380971455535      
0.480985892011      
0.521784495801      
0.549782379707      
0.540025789398      
-0.629916616373     
-1.44818116355      
-4.76330072327      
-3.83848848246      
-1.24312047286      
-1.07864682851      
-0.636459444388     
-0.532477840708     
-0.324310097859     
-0.269093146743     
-0.150713441488     
-0.110007268839     
-0.00373806792378   
0.0231536604412     
0.158053903869      
0.173696800904      
0.344316492474      
0.367882957823      
0.513473401387      
0.522520945603      
-0.32915825015      
-0.585824212476     
-2.8469921932       
-2.96626266813      
-1.67807340991      
-1.59324080985      
-0.813126777521     
-0.762998874972     
-0.353081984048     
-0.305562347276     
-0.0641353043357    
-0.00554832086151   
0.147746586176      
0.210230909113      
0.320754039309      
0.379665073216      
0.469873392076      
0.516987440362      
0.544808397391      
0.533151685023      
-0.649377845103     
-1.4395401974       
-4.40135810644      
-3.71317486274      
-1.18593015678      
-1.04443819206      
-0.633552446954     
-0.5142046478       
-0.325397272857     
-0.257141612151     
-0.154944633504     
-0.102661300335     
-0.0093025592931    
0.0268608323324     
0.154356210187      
0.173744263954      
0.342872895244      
0.365317502822      
0.508802258537      
0.520121737899      
-0.329477265906     
-0.572597962256     
-2.81576283241      
-2.93790138467      
-1.65793022163      
-1.57818958946      
-0.8020869861       
-0.753719379011     
-0.348427836149     
-0.298081283975     
-0.0652617058244    
0.000376992529968   
0.143864868808      
0.214093308737      
0.313835256972      
0.380806646119      
0.459669354732      
0.513639775524      
0.541526580481      
0.527270979004      
-0.61862893668      
-1.40735395476      
-3.31216349217      
-3.19829379789      
-0.992131064848     
-0.94684601273      
-0.608687689541     
-0.492682953485     
-0.320788599835     
-0.247662919941     
-0.166140492893     
-0.104208511727     
-0.0312928240106    
0.0218254572632     
0.131051035909      
0.167182237409      
0.332996675695      
0.358559763742      
0.504095522939      
0.519839260279      
-0.293981723062     
-0.530395710272     
-2.71156887039      
-2.86497356351      
-1.60168467736      
-1.54253300196      
-0.771023809476     
-0.731620983785     
-0.335882094366     
-0.281535174438     
-0.0590720283079    
0.0116150299421     
0.145495981355      
0.221919140813      
0.30515861352       
0.385796103795      
0.438643595389      
0.510871014227      
0.545223993934      
0.526700587748      
-0.441531006179     
-1.33127078984      
-2.21422419162      
-2.46130421398      
-0.695767255258     
-0.68917194167      
-0.418590467981     
-0.339839150523     
-0.218623254504     
-0.192327647707     
-0.11697805646      
-0.0966182406035    
-0.0278720676896    
0.00707815097265    
0.0924311571776     
0.146027953519      
0.281664392236      
0.338129226066      
0.490520114292      
0.520999284283      
-0.185685328231     
-0.42146625182      
-2.47168535892      
-2.67777021784      
-1.47978619806      
-1.44664013965      
-0.681150323679     
-0.658053388215     
-0.244280125163     
-0.219177118716     
0.0372649809891     
0.0656939360175     
0.226517514784      
0.271016732367      
0.361888065234      
0.43359778828       
0.465743917016      
0.552140472697      
0.557526650908      
0.563443874529      
0.141520330127      
-0.622194142232     
-1.00271549085      
-1.2421129114       
-0.348377734443     
-0.396059830535     
-0.246706453392     
-0.28772040961      
-0.200066572336     
-0.186723223696     
-0.154242398918     
-0.113776436434     
-0.0961678276139    
-0.0349974945552    
-0.00476350872819   
0.0911436525194     
0.155234462443      
0.298336603953      
0.436497430623      
0.518077672455      
0.0336829292642     
-0.162045821696     
-1.9172311621       
-2.24698634627      
-1.15160049861      
-1.11634233535      
-0.47583434608      
-0.463430050883     
-0.141734189437     
-0.156028765237     
0.0683500359638     
0.0454554940391     
0.214296958263      
0.198518790782      
0.339582526756      
0.343400675585      
0.497857258649      
0.549021117566      
0.627509341584      
0.72370981315       
0.596700380662      
0.369770972287      
-0.761086024018     
-0.884526979972     
-0.522868544062     
-0.772838804686     
-0.471738577024     
-0.690200577558     
-0.44477572686      
-0.603332472884     
-0.411925373957     
-0.523059243121     
-0.374951913578     
-0.436015395008     
-0.319340133911     
-0.30429063129      
-0.185944732639     
0.00990892757331    
0.231845789221      
0.760055512321      
-1.34655997256      
-1.1197791018       
-1.48898580827      
-1.05019882584      
-1.16038908081      
-1.00189445714      
-1.01130602545      
-0.97028737538      
-0.921794581918     
-0.93948277036      
-0.878173715594     
-0.921653650308     
-0.881350477217     
-0.925052904033     
-0.945617980979     
-0.959274934193     
-1.0822538244       
-0.126117222667     
-1.72943157056      
-1.22348181043      
-1.57801170612      
-1.07681943306      
-1.26842711811      
-1.04148681579      
-1.12638311804      
-1.03282966331      
-1.04513013293      
-1.03291879561      
-1.0172013008       
-1.05900614311      
-1.04783233163      
-1.12602962685      
-1.15381563783      
-1.26619541451      
-1.34271655694      
-1.11363162534      
-1.24591297578      
-0.875933495002     
-1.10952675783      
-0.67878244346      
-0.890067243354     
-0.674278031228     
-0.80583666769      
-0.700739866442     
-0.767863277879     
-0.743121216634     
-0.779191694671     
-0.821450591671     
-0.8488695242       
-0.955145551577     
-0.992714449411     
-1.21237125352      
-1.25547245096      
-1.71027921845      
-0.0777275389935    
-0.265093457644     
-0.480150244044     
-0.0636037734431    
-0.378078019987     
-0.110216393593     
-0.345671884995     
-0.193358375519     
-0.350472415727     
-0.285715632374     
-0.401980748153     
-0.412186413813     
-0.523697953035     
-0.605652724578     
-0.757551454379     
-0.973676303774     
-1.26430607946      
-1.64813861622      
-8.26797356466      
-7.28300660443      
-1.77235416303      
-1.38974397631      
-0.730859099394     
-0.438754945225     
-0.267676110253     
-0.120974272556     
-0.0295332413864    
0.0396095647104     
0.150568854689      
0.196495572792      
0.300234939747      
0.3656554537        
0.462196805731      
0.540625191037      
0.703005557946      
0.688271849433      
0.0582437285232     
-0.000615498605594  
-2.02684698599      
-1.95845262275      
-1.2288549054       
-1.24743564718      
-0.794181627191     
-0.804987260933     
-0.383130897373     
-0.40658421115      
-0.107003615808     
-0.0913846404407    
0.060459985367      
0.0892550351996     
0.317491046661      
0.354166798606      
0.642723535357      
0.725438941898      
0.828299026845      
0.765488936187      
-1.99279812575      
-7.05375653987      
-5.97431480238      
-5.04343857834      
-1.45798249185      
-1.42678986336      
-0.667690017545     
-0.610480612135     
-0.322685696929     
-0.238669269339     
-0.11761617344      
-0.0239432548466    
0.0465727599885     
0.13478318778       
0.215181627486      
0.283021194948      
0.423447317003      
0.435384207864      
0.54524801579       
0.556043020702      
-0.381853283699     
-0.491291185458     
-2.90884048759      
-3.03449297825      
-1.70415758087      
-1.78791195997      
-0.850624562629     
-0.956559404415     
-0.415964675275     
-0.466258309019     
-0.0871036277211    
-0.121306273891     
0.180010299469      
0.173659233838      
0.394493945779      
0.429286920424      
0.556251629595      
0.601934402809      
0.587039057263      
0.562529844564      
-0.947929802438     
-2.50850888479      
-5.45133611612      
-4.21358554705      
-1.33679644799      
-1.16510982725      
-0.628948694086     
-0.558415925547     
-0.323950423928     
-0.279893249734     
-0.145015345977     
-0.100371522513     
0.00395033662398    
0.0497723519206     
0.169564224763      
0.203063577501      
0.362517313925      
0.390452968256      
0.512156861691      
0.521663971442      
-0.384624174131     
-0.75602917239      
-2.96671380486      
-3.33942819575      
-1.71829637916      
-1.79045976097      
-0.819364524515     
-0.884574092934     
-0.347735770826     
-0.370470040351     
-0.046490591032     
-0.0297233373076    
0.177119206407      
0.211204634269      
0.356336612554      
0.39779991829       
0.507640681348      
0.543796797212      
0.559151070667      
0.549450109751      
-0.650130001065     
-1.58545842383      
-5.24060949121      
-4.01408877382      
-1.29975097131      
-1.11085486712      
-0.620050926264     
-0.538506705227     
-0.319405659915     
-0.274196333826     
-0.146555013798     
-0.111474370924     
-0.0017981044385    
0.0254681931003     
0.158168379259      
0.17862431688       
0.345104338158      
0.375517030647      
0.515745823418      
0.524096267166      
-0.32033342646      
-0.673124317124     
-2.87724902613      
-3.16132340233      
-1.69018964125      
-1.67947966664      
-0.813185314012     
-0.807085796207     
-0.345455461688     
-0.326766134385     
-0.050745161908     
-0.0130051972695    
0.16614396193       
0.210370195409      
0.342173837977      
0.386058417755      
0.493383917199      
0.529045152498      
0.553381442561      
0.545532649072      
-0.602477679748     
-1.43200982997      
-4.99923868685      
-3.90564158357      
-1.27383618877      
-1.09824936193      
-0.630999670448     
-0.543070719796     
-0.322808721298     
-0.27640440867      
-0.149210838994     
-0.114626975189     
-0.00313263246432   
0.0209984914479     
0.157074173024      
0.17378136804       
0.343644828003      
0.370269919779      
0.516828995118      
0.52520660504       
-0.314266449665     
-0.604961038629     
-2.85106015451      
-3.01777869555      
-1.68280399167      
-1.6172171591       
-0.814502726268     
-0.775569241547     
-0.350985315244     
-0.312679517925     
-0.0586261472974    
-0.00944671544393   
0.155595623173      
0.208672252188      
0.330240461829      
0.380971478433      
0.48098660902       
0.521784876054      
0.549783018312      
0.540026445881      
-0.629915302454     
-1.44818668999      
-4.76330100572      
-3.83848075454      
-1.24312802263      
-1.07865158664      
-0.636462625683     
-0.532480495669     
-0.324309914466     
-0.269094231825     
-0.150713180253     
-0.110007826024     
-0.00373790381238   
0.0231534836579     
0.158053716649      
0.173696728422      
0.344316563643      
0.367883011875      
0.513473834699      
0.52252124966       
-0.329156324859     
-0.585825563063     
-2.84698897545      
-2.96626124049      
-1.67807126286      
-1.59324031349      
-0.813127238794     
-0.762998269174     
-0.353082333514     
-0.305562582824     
-0.0641357330576    
-0.00554891292633   
0.147746410988      
0.210230520507      
0.320754289784      
0.379664926957      
0.469873860896      
0.516987775599      
0.544808938405      
0.533152336908      
-0.649378664415     
-1.43954819161      
-4.40131912066      
-3.71316613883      
-1.18593243069      
-1.04443788373      
-0.633553392368     
-0.51420577637      
-0.325396752925     
-0.257141701208     
-0.154943888562     
-0.102661079619     
-0.00930167475614   
0.0268610852015     
0.154356984034      
0.173744296874      
0.342873292109      
0.365317690249      
0.508802595362      
0.520121787045      
-0.329487844037     
-0.572612695367     
-2.81578797507      
-2.93792486184      
-1.65793278978      
-1.5781847909       
-0.802086557446     
-0.753718820935     
-0.348427912589     
-0.298081221556     
-0.0652622770932    
0.000376608352077   
0.143865082192      
0.214093411675      
0.313835146362      
0.380806544316      
0.459669630717      
0.513640210226      
0.541526814853      
0.5272705364        
-0.618637448079     
-1.40736994461      
-3.31218407768      
-3.19830857759      
-0.992130927975     
-0.94684611083      
-0.608685646876     
-0.492683957235     
-0.320788759838     
-0.247663629941     
-0.166140791339     
-0.104208258411     
-0.0312922108959    
0.0218259750369     
0.131051544102      
0.167182524576      
0.332996576736      
0.358559718695      
0.504095442017      
0.519839150977      
-0.293981063574     
-0.530391514672     
-2.71158262453      
-2.86499054469      
-1.60168027031      
-1.54253480587      
-0.771022878833     
-0.731621093814     
-0.33588283736      
-0.281535769601     
-0.0590728769793    
0.0116144942107     
0.145495447742      
0.221918860118      
0.305158650656      
0.385796417549      
0.438643424445      
0.510870599427      
0.54522408141       
0.526700219884      
-0.441533579761     
-1.33126950318      
-2.21426577565      
-2.46133913979      
-0.695778899368     
-0.689177463539     
-0.418592914156     
-0.339839510653     
-0.218622899746     
-0.192327392733     
-0.116977665801     
-0.0966181886602    
-0.027871515165     
0.00707927795018    
0.092432416423      
0.146028976832      
0.281664393389      
0.338129248389      
0.490520532971      
0.52099925335       
-0.185684658764     
-0.421461556473     
-2.47170478153      
-2.67779202498      
-1.47979003647      
-1.44664397655      
-0.68115204993      
-0.658053549739     
-0.244281404461     
-0.219177642815     
0.0372645211063     
0.0656931057541     
0.226518783147      
0.271017443056      
0.361890631523      
0.433599123087      
0.465746872875      
0.5521410016        
0.557527590045      
0.563443857054      
0.141520544999      
-0.622192922744     
-1.00274788763      
-1.24214424341      
-0.348384531323     
-0.396071758275     
-0.246709912352     
-0.28772409613      
-0.200065357143     
-0.186724416772     
-0.1542404565       
-0.113777413754     
-0.0961675285194    
-0.034997303388     
-0.0047630614093    
0.0911447637419     
0.15523518412       
0.298337651247      
0.436499926744      
0.518079049127      
0.0336836598897     
-0.162045314003     
-1.91724437143      
-2.24699443128      
-1.15160520476      
-1.11634754824      
-0.475836128851     
-0.463429973798     
-0.141733244106     
-0.156028464318     
0.0683521072008     
0.0454556068644     
0.21429659193       
0.198517719728      
0.339581100955      
0.343400197851      
0.497856731154      
0.549020036773      
0.627510533936      
0.723710297885      
0.596702503683      
0.369766085712      
-0.761071601978     
-0.884393340722     
-0.522875113501     
-0.772894044555     
-0.471742210718     
-0.690194484971     
-0.444772982671     
-0.603330437955     
-0.411925868799     
-0.523056317444     
-0.374950589279     
-0.43601430584      
-0.319339768828     
-0.304296090362     
-0.185940448427     
0.00990056346541    
0.231849109266      
0.760039697949      
-1.34667213726      
-1.11944696606      
-1.48901968553      
-1.0502810088       
-1.1604339671       
-1.00189413629      
-1.01132029846      
-0.97027325905      
-0.921797121452     
-0.939480193011     
-0.878179947271     
-0.921658356973     
-0.881362056929     
-0.925038771846     
-0.945627539668     
-0.959280485463     
-1.08222844535      
-0.126124154152     
-1.7295857536       
-1.22364193314      
-1.57804040164      
-1.0768593267       
-1.2684660613       
-1.0415288672       
-1.12640150539      
-1.03285299684      
-1.04513359127      
-1.03292662251      
-1.01720336341      
-1.05900943515      
-1.0478446526       
-1.12604089995      
-1.1538309404       
-1.26623079985      
-1.3427349909       
-1.1136861897       
-1.2459102724       
-0.875745862481     
-1.10957705596      
-0.678785651256     