# vtk DataFile Version 3.0
PyPan results file. Generated by PyPan, USU AeroLab (c) 2020.
ASCII
DATASET POLYDATA
POINTS 492 float
-4.75               -4.0                0.0                 
-4.75               4.0                 0.0                 
-4.7255282402       -4.00441503525      -0.00143460487016   
-4.7255282402       -4.00441503525      0.00143460487016    
-4.7255282402       -4.00272893906      -0.00375584419817   
-4.7255282402       -4.00272893906      0.00375584419817    
-4.7255282402       -4.0                -0.00464247865602   
-4.7255282402       -4.0                0.00464247865602    
-4.7255282402       4.0                 -0.00464247865602   
-4.7255282402       4.0                 0.00464247865602    
-4.7255282402       4.00272893906       -0.00375584419817   
-4.7255282402       4.00272893906       0.00375584419817    
-4.7255282402       4.00441503525       -0.00143460487016   
-4.7255282402       4.00441503525       0.00143460487016    
-4.6545085907       -4.01323318481      -0.00429976172745   
-4.6545085907       -4.01323318481      0.00429976172745    
-4.6545085907       -4.00817871094      -0.0112569229677    
-4.6545085907       -4.00817871094      0.0112569229677     
-4.6545085907       -4.0                -0.0139143215492    
-4.6545085907       -4.0                0.0139143215492     
-4.6545085907       4.0                 -0.0139143215492    
-4.6545085907       4.0                 0.0139143215492     
-4.6545085907       4.00817871094       -0.0112569229677    
-4.6545085907       4.00817871094       0.0112569229677     
-4.6545085907       4.01323318481       -0.00429976172745   
-4.6545085907       4.01323318481       0.00429976172745    
-4.65211296082      -3.90211296082      0.0                 
-4.65211296082      3.90211296082       0.0                 
-4.62764120102      -3.90211296082      -0.00464247865602   
-4.62764120102      -3.90211296082      0.00464247865602    
-4.62764120102      3.90211296082       -0.00464247865602   
-4.62764120102      3.90211296082       0.00464247865602    
-4.55662155151      -3.90211296082      -0.0139143215492    
-4.55662155151      -3.90211296082      0.0139143215492     
-4.55662155151      3.90211296082       -0.0139143215492    
-4.55662155151      3.90211296082       0.0139143215492     
-4.54389286041      -4.02558851242      -0.00831415317953   
-4.54389286041      -4.02558851242      0.00831415317953    
-4.54389286041      -4.01581430435      -0.0217667371035    
-4.54389286041      -4.01581430435      0.0217667371035     
-4.54389286041      -4.0                -0.0269051659852    
-4.54389286041      -4.0                0.0269051659852     
-4.54389286041      4.0                 -0.0269051659852    
-4.54389286041      4.0                 0.0269051659852     
-4.54389286041      4.01581430435       -0.0217667371035    
-4.54389286041      4.01581430435       0.0217667371035     
-4.54389286041      4.02558851242       -0.00831415317953   
-4.54389286041      4.02558851242       0.00831415317953    
-4.44600582123      -3.90211296082      -0.0269051659852    
-4.44600582123      -3.90211296082      0.0269051659852     
-4.44600582123      3.90211296082       -0.0269051659852    
-4.44600582123      3.90211296082       0.0269051659852     
-4.4045085907       -4.03891468048      -0.0126441745088    
-4.4045085907       -4.03891468048      0.0126441745088     
-4.4045085907       -4.02405071259      -0.0331028774381    
-4.4045085907       -4.02405071259      0.0331028774381     
-4.4045085907       -4.0                -0.0409174077213    
-4.4045085907       -4.0                0.0409174077213     
-4.4045085907       4.0                 -0.0409174077213    
-4.4045085907       4.0                 0.0409174077213     
-4.4045085907       4.02405071259       -0.0331028774381    
-4.4045085907       4.02405071259       0.0331028774381     
-4.4045085907       4.03891468048       -0.0126441745088    
-4.4045085907       4.03891468048       0.0126441745088     
-4.36803388596      -3.61803388596      0.0                 
-4.36803388596      3.61803388596       0.0                 
-4.34356212616      -3.61803388596      -0.00464247865602   
-4.34356212616      -3.61803388596      0.00464247865602    
-4.34356212616      3.61803388596       -0.00464247865602   
-4.34356212616      3.61803388596       0.00464247865602    
-4.30662155151      -3.90211296082      -0.0409174077213    
-4.30662155151      -3.90211296082      0.0409174077213     
-4.30662155151      3.90211296082       -0.0409174077213    
-4.30662155151      3.90211296082       0.0409174077213     
-4.27254247665      -3.61803388596      -0.0139143215492    
-4.27254247665      -3.61803388596      0.0139143215492     
-4.27254247665      3.61803388596       -0.0139143215492    
-4.27254247665      3.61803388596       0.0139143215492     
-4.25               -4.05034923553      -0.0163594372571    
-4.25               -4.05034923553      0.0163594372571     
-4.25               -4.03111743927      -0.0428295619786    
-4.25               -4.03111743927      0.0428295619786     
-4.25               -4.0                -0.0529402531683    
-4.25               -4.0                0.0529402531683     
-4.25               4.0                 -0.0529402531683    
-4.25               4.0                 0.0529402531683     
-4.25               4.03111743927       -0.0428295619786    
-4.25               4.03111743927       0.0428295619786     
-4.25               4.05034923553       -0.0163594372571    
-4.25               4.05034923553       0.0163594372571     
-4.16192674637      -3.61803388596      -0.0269051659852    
-4.16192674637      -3.61803388596      0.0269051659852     
-4.16192674637      3.61803388596       -0.0269051659852    
-4.16192674637      3.61803388596       0.0269051659852     
-4.15211296082      -3.90211296082      -0.0529402531683    
-4.15211296082      -3.90211296082      0.0529402531683     
-4.15211296082      3.90211296082       -0.0529402531683    
-4.15211296082      3.90211296082       0.0529402531683     
-4.0954914093       -4.05665874481      -0.0184096004814    
-4.0954914093       -4.05665874481      0.0184096004814     
-4.0954914093       -4.03501701355      -0.0481969565153    
-4.0954914093       -4.03501701355      0.0481969565153     
-4.0954914093       -4.0                -0.0595747157931    
-4.0954914093       -4.0                0.0595747157931     
-4.0954914093       4.0                 -0.0595747157931    
-4.0954914093       4.0                 0.0595747157931     
-4.0954914093       4.03501701355       -0.0481969565153    
-4.0954914093       4.03501701355       0.0481969565153     
-4.0954914093       4.05665874481       -0.0184096004814    
-4.0954914093       4.05665874481       0.0184096004814     
-4.02254247665      -3.61803388596      -0.0409174077213    
-4.02254247665      -3.61803388596      0.0409174077213     
-4.02254247665      3.61803388596       -0.0409174077213    
-4.02254247665      3.61803388596       0.0409174077213     
-3.99760460854      -3.90211296082      -0.0595747157931    
-3.99760460854      -3.90211296082      0.0595747157931     
-3.99760460854      3.90211296082       -0.0595747157931    
-3.99760460854      3.90211296082       0.0595747157931     
-3.95610737801      -4.05488920212      -0.0178346466273    
-3.95610737801      -4.05488920212      0.0178346466273     
-3.95610737801      -4.03392362595      -0.046691711992     
-3.95610737801      -4.03392362595      0.046691711992      
-3.95610737801      -4.0                -0.0577141307294    
-3.95610737801      -4.0                0.0577141307294     
-3.95610737801      4.0                 -0.0577141307294    
-3.95610737801      4.0                 0.0577141307294     
-3.95610737801      4.03392362595       -0.046691711992     
-3.95610737801      4.03392362595       0.046691711992      
-3.95610737801      4.05488920212       -0.0178346466273    
-3.95610737801      4.05488920212       0.0178346466273     
-3.92557048798      -3.17557048798      0.0                 
-3.92557048798      3.17557048798       0.0                 
-3.90109872818      -3.17557048798      -0.00464247865602   
-3.90109872818      -3.17557048798      0.00464247865602    
-3.90109872818      3.17557048798       -0.00464247865602   
-3.90109872818      3.17557048798       0.00464247865602    
-3.86803388596      -3.61803388596      -0.0529402531683    
-3.86803388596      -3.61803388596      0.0529402531683     
-3.86803388596      3.61803388596       -0.0529402531683    
-3.86803388596      3.61803388596       0.0529402531683     
-3.85822033882      -3.90211296082      -0.0577141307294    
-3.85822033882      -3.90211296082      0.0577141307294     
-3.85822033882      3.90211296082       -0.0577141307294    
-3.85822033882      3.90211296082       0.0577141307294     
-3.8454914093       -4.0437951088       -0.0142299029976    
-3.8454914093       -4.0437951088       0.0142299029976     
-3.8454914093       -4.02706670761      -0.037254370749     
-3.8454914093       -4.02706670761      0.037254370749      
-3.8454914093       -4.0                -0.0460489317775    
-3.8454914093       -4.0                0.0460489317775     
-3.8454914093       4.0                 -0.0460489317775    
-3.8454914093       4.0                 0.0460489317775     
-3.8454914093       4.02706670761       -0.037254370749     
-3.8454914093       4.02706670761       0.037254370749      
-3.8454914093       4.0437951088        -0.0142299029976    
-3.8454914093       4.0437951088        0.0142299029976     
-3.83007907867      -3.17557048798      -0.0139143215492    
-3.83007907867      -3.17557048798      0.0139143215492     
-3.83007907867      3.17557048798       -0.0139143215492    
-3.83007907867      3.17557048798       0.0139143215492     
-3.7744717598       -4.0246257782       -0.00800147373229   
[...]
CELL_DATA 980
SCALARS pressure_coefficient float 1
LOOKUP_TABLE default
-0.672438914495     
-0.677015918727     
-0.309308587058     
-0.234756016664     
-0.194751609286     
-0.150320228103     
-0.134392366828     
-0.138507412892     
-0.119129397217     
-0.153173777183     
-0.0828262488786    
-0.093609865714     
-0.0621875166141    
-0.0282360192951    
-0.0447826143003    
0.0370252090232     
0.15660816261       
0.20974599316       
0.49232963888       
0.524999079707      
0.0531485003629     
-0.166833704445     
-0.225799054642     
-0.378266066437     
-0.318794531489     
-0.367442483625     
-0.199255005215     
-0.228283050238     
-0.103125140218     
-0.098861838801     
-0.0726058700436    
-0.0522913923062    
0.0417955364959     
0.0625013016701     
0.202963290056      
0.248152986657      
0.405139995461      
0.509058638327      
0.565755149075      
0.565948101233      
-0.38343461171      
-0.397385294863     
-0.202718847728     
-0.164498586434     
-0.14051607949      
-0.101164548305     
-0.117864901861     
-0.0960686487391    
-0.112574153201     
-0.0938401293688    
-0.115456562862     
-0.0929533221883    
-0.106132198314     
-0.0814062747041    
-0.0342143687888    
-0.0450011994994    
0.103176511681      
0.115379157294      
0.426063670491      
0.475573662792      
-0.123691412396     
-0.441513234274     
-0.429217599564     
-0.650444357028     
-0.334004259277     
-0.475007244124     
-0.251413995049     
-0.30608197065      
-0.142195765656     
-0.169812092946     
-0.0310667575069    
-0.041305011437     
0.0674754455864     
0.0798370862008     
0.157977310226      
0.200459731409      
0.260689780816      
0.293070385682      
0.4580679075        
0.494660451255      
-0.336230647587     
-0.339306512627     
-0.168866332855     
-0.11320976542      
-0.115454807849     
-0.0678088546323    
-0.112361396056     
-0.087507376937     
-0.120894913237     
-0.10614818857      
-0.132883170046     
-0.124271511605     
-0.130770258697     
-0.130375287772     
-0.0894129263093    
-0.0816262577256    
0.0437167010014     
0.113989241532      
0.42402540682       
0.472192832335      
-0.0870653149083    
-0.380305373563     
-0.422800815213     
-0.584401566087     
-0.340128652909     
-0.440796577397     
-0.235430953981     
-0.283848982648     
-0.137473328664     
-0.144846249607     
-0.0441817891596    
-0.0293957757128    
0.0417821448713     
0.0745518502889     
0.129951803025      
0.182517537759      
0.231453989654      
0.246015455701      
0.427117970431      
0.442775910756      
-0.277624892477     
-0.309149798528     
-0.157042143966     
-0.115035606009     
-0.120132009858     
-0.0810129188575    
-0.115919497375     
-0.0961334407982    
-0.126632099534     
-0.114669131989     
-0.139717917134     
-0.135784468382     
-0.14042781848      
-0.141761747527     
-0.106007670548     
-0.0922499256779    
0.0326163341743     
0.0932264374679     
0.429863884557      
0.471296737642      
-0.0603630904364    
-0.260466007263     
-0.415920379331     
-0.502027670692     
-0.345064738922     
-0.386238064222     
-0.243139735636     
-0.254243302629     
-0.148042403572     
-0.132039478004     
-0.0586201366897    
-0.0260109219788    
0.0252025833625     
0.0696708948254     
0.110146817665      
0.170710414427      
0.221469036964      
0.24056518023       
0.430674318137      
0.446411498456      
-0.159373085301     
-0.267816982407     
-0.142859368552     
-0.121474236727     
-0.143336059336     
-0.100788271021     
-0.127116793933     
-0.10759935781      
-0.134695657437     
-0.123013286757     
-0.143190452447     
-0.142169074494     
-0.13811272145      
-0.146065476413     
-0.099723960838     
-0.0969625820901    
0.0410430853013     
0.0810195543879     
0.433186765132      
0.463985557912      
-0.0683259522125    
-0.205071184409     
-0.422267195167     
-0.463721157573     
-0.351453668906     
-0.361659949942     
-0.253023429336     
-0.24086750477      
-0.162977733468     
-0.126573250914     
-0.07883808447      
-0.0253940259863    
0.000345493790287   
0.0656948562803     
0.0737693506537     
0.159445091134      
0.205924714213      
0.2417953696        
0.440227341525      
0.454706131886      
-0.0759500504463    
-0.263206524151     
-0.129131428061     
-0.113657947216     
-0.155480784006     
-0.089996956677     
-0.132114246619     
-0.0974878011415    
-0.137203614742     
-0.113775024673     
-0.141923748066     
-0.134993782426     
-0.131405216795     
-0.141227061675     
-0.0897280509786    
-0.0946734621974    
0.0502376310936     
0.0791790653162     
0.430061469581      
0.456534104305      
-0.0849927206744    
-0.201134922548     
-0.428660609138     
-0.456684226951     
-0.354248634216     
-0.355225388612     
-0.256966024876     
-0.234699304778     
-0.171527573341     
-0.120259203283     
-0.0918292818062    
-0.0193776034758    
-0.0168643727748    
0.0695258616194     
0.0469895825957     
0.160189336402      
0.189545575928      
0.235023433106      
0.434962021372      
0.439260182754      
-0.0382361035523    
-0.274930195829     
-0.118512999751     
-0.100181265383     
-0.152526700816     
-0.0651002750539    
-0.131206124345     
-0.0774567531823    
-0.136889019935     
-0.0974843259604    
-0.142411037694     
-0.123255397639     
-0.131137183771     
-0.134958041283     
-0.0876962941582    
-0.0930783150395    
0.049218303087      
0.0782254622132     
0.422656653083      
0.451992701572      
-0.086159841645     
-0.210255660365     
-0.423651178913     
-0.459145183879     
-0.348918089194     
-0.354291045249     
-0.253053663564     
-0.229915248181     
-0.171150966789     
-0.112692051125     
-0.0928262567681    
-0.0103095523437    
-0.0200004370776    
0.0788337028984     
0.0398137946508     
0.168606866715      
0.177105645531      
0.226388465668      
0.419239362887      
0.414215786387      
0.0768409873562     
-0.200621640836     
-0.083889845312     
-0.0787410075958    
-0.145608958191     
-0.0500952387969    
-0.125462597135     
-0.0646343817471    
-0.134090647543     
-0.0920460482271    
-0.147752776779     
-0.121967167835     
-0.143373390903     
-0.137335080388     
-0.0933717992608    
-0.0992511988609    
0.0434422559816     
0.0701723737942     
0.417433503095      
0.449708761317      
-0.0750136425975    
-0.197415963243     
-0.413131751316     
-0.448725517703     
-0.342152629724     
-0.345455810086     
-0.254715872387     
-0.222322422283     
-0.172917720848     
-0.107879279702     
-0.0925412327701    
-0.00562724190835   
-0.0254450568112    
0.0861579163001     
0.0192987396755     
0.169071777325      
0.150284169576      
0.221183325649      
0.398886127417      
0.400630302269      
0.0239363736908     
-0.18187760102      
-0.0806453661408    
-0.0307371742915    
-0.0837670314555    
0.0181757115222     
-0.0674498626141    
-0.0311157049743    
-0.0808096705477    
-0.0787316136927    
-0.109158673651     
-0.117217461585     
-0.132482128319     
-0.137207641087     
-0.113152149239     
-0.108129000841     
0.0214007104924     
0.0572066418358     
0.413829626495      
0.449744155216      
-0.0638031901122    
-0.15898317487      
-0.411257845489     
-0.418799318937     
-0.325804860865     
-0.312921142565     
-0.216484223024     
-0.19121495703      
-0.110527075608     
-0.0807344863346    
-0.0222394129478    
0.02054118796       
0.0427858448896     
0.118806167218      
0.0785528173835     
0.209665789997      
0.140505942389      
0.215418877384      
0.327972709134      
0.348385235933      
-0.000338980224667  
1.71101236709e-05   
-0.0235497421689    
0.0336212383957     
-0.0480708562021    
-0.0509660252383    
-0.0854865012805    
-0.0763251801066    
-0.111379247433     
-0.0936745304134    
-0.132942275895     
-0.114075822128     
-0.147884829775     
-0.118730221833     
-0.136916197191     
-0.0724571503384    
-0.0230053037957    
0.0540823484419     
0.418125218492      
0.457746430151      
0.0706647538158     
-0.0423890205927    
-0.273447410775     
-0.251839025574     
-0.200929458758     
-0.192010637653     
-0.117478289258     
-0.144474506341     
-0.0378147671052    
-0.0889588165776    
0.027971499916      
-0.0334277444748    
0.0896013114181     
0.0292464964247     
0.173553142865      
0.148504713191      
0.207323228921      
0.25568861086       
0.244664724062      
0.305729890966      
-0.10358612247      
-0.217417233963     
-0.174238069293     
-0.198155329027     
-0.161122353435     
-0.193140564298     
-0.154837036177     
-0.192590104645     
-0.158945362548     
-0.19567102613      
-0.174775317724     
-0.19854219935      
-0.198023040253     
-0.183028223693     
-0.207258999056     
-0.0814284671956    
-0.0884657490354    
0.639025998175      
-0.0996990995799    
-0.215328724346     
-0.179048873508     
-0.194638541588     
-0.150342945757     
-0.193642784289     
-0.157758619873     
-0.200567271025     
-0.17021054381      
-0.211024105086     
-0.193736144389     
-0.221800224891     
-0.229105300454     
-0.222117505452     
-0.271481359059     
-0.191877239148     
-0.322298699336     
0.553811021044      
-0.0896655215317    
-0.187950507399     
-0.176488902494     
-0.171988074867     
-0.144848740928     
-0.175995837767     
-0.152287499018     
-0.188236567405     
-0.165866350564     
-0.204645500024     
-0.191355123464     
-0.222833397322     
-0.229239978372     
-0.232811467166     
-0.273624832234     
-0.219590513753     
-0.340015205528     
0.427789991609      
-0.0733514507717    
-0.165618129789     
-0.127820678614     
-0.133547787566     
-0.102564058526     
-0.133907471185     
-0.117333175862     
-0.149551946607     
-0.13725042393      
-0.174060133081     
-0.169202988788     
-0.205868879708     
-0.215364813756     
-0.236945457381     
-0.272177190989     
-0.26321106222      
-0.381576409613     
0.253818472499      
-0.0470370740732    
-0.184004077627     
-0.173236802732     
-0.112484810733     
-0.124445922273     
-0.0978578341028    
-0.121089526613     
-0.114642523789     
-0.133941999302     
-0.142920420816     
-0.165540757383     
-0.180073475737     
-0.218011606994     
-0.215837150179     
-0.286888499339     
-0.22093929985      
-0.352432172853     
0.179385968812      
-0.672444467855     
-0.67701611727      
-0.309308814823     
-0.234759338281     
-0.194752185948     
-0.150320940313     
-0.134392284148     
-0.138507341117     
-0.119129043083     
-0.153173530692     
-0.0828263260935    
-0.0936101628535    
-0.0621875752936    
-0.0282365147653    
-0.0447823069539    
0.0370247372629     
0.156607899689      
0.209745856503      
0.492330154748      
0.525000072377      
0.0531486825537     
-0.166833698843     
-0.225800265269     
-0.378267226759     
-0.318794541323     
-0.367443009535     
-0.199255224367     
-0.22828375832      
-0.103125295565     
-0.0988627087993    
-0.0726055364364    
-0.0522919181404    
0.0417955963908     
0.0625006404405     
0.202962264924      
0.248150795391      
0.405139087402      
0.509055289578      
0.565755982503      
0.565951487756      
-0.383436916292     
-0.397386755019     
-0.202719459237     
-0.164500292957     
-0.14051640459      
-0.101166779674     
-0.11786538759      
-0.0960703733899    
-0.112574626721     
-0.0938413080289    
-0.115456798677     
-0.0929541038189    
-0.106132589041     
-0.0814069124653    
-0.0342152039472    
-0.0450013970211    
0.103175899021      
0.1153794418        
0.426064544074      
0.475574431295      
-0.123691514544     
-0.4415115564       
-0.429218370305     
-0.650443345119     
-0.334005307781     
-0.475006845448     
-0.251414421189     
-0.306082041878     
-0.142196118986     
-0.169812450105     
-0.0310671689506    
-0.0413055941319    
0.0674751678794     
0.079836434854      
0.157977476993      
0.20045955274       
0.260690513639      
0.29307165458       
0.458069071138      
0.49466211165       
-0.33623299688      
-0.339306969343     
-0.168867088602     
-0.1132106834       
-0.115454563896     
-0.0678100110646    
-0.112361433882     
-0.0875083193474    
-0.120894891084     
-0.106148954968     
-0.132883209967     
-0.1242719391       
-0.130770574189     
-0.130375602901     
-0.089413413476     
-0.0816264425674    
0.043716401193      
0.113988945597      
0.424025982077      
0.472193313182      
-0.0870644720398    
-0.38030275382      
-0.422801966882     
-0.584400672919     
-0.340129534243     
-0.440795936015     
-0.235431688735     
-0.28384887051      
-0.137473778911     
-0.144846589622     
-0.0441819548899    
-0.0293960491701    
0.0417823926927     
0.0745516679165     
0.129952308159      
0.182517235154      
0.231454661324      
0.246016513729      
0.427118462398      
0.442777502701      
-0.277626842079     
-0.309150241924     
-0.157043042523     
-0.115036676146     
-0.120132289025     
-0.0810141437454    
-0.115919527539     
-0.0961343515838    
-0.126632134358     
-0.114669821327     
-0.139717823675     
-0.135784761434     
-0.140427959102     
-0.141761882151     
-0.10600787167      
-0.0922499638674    
0.0326163921331     
0.0932262717232     
0.429864573807      
0.471297012003      
-0.0603640003033    
-0.260465257719     
-0.415920743163     
-0.502026848827     
-0.345064852571     
-0.386237440858     
-0.243140248424     
-0.25424328429      
-0.148042858986     
-0.132039816        
-0.0586202017492    
-0.026011185252     
0.0252026211929     
0.069670667907      
0.110146893582      
0.17070977441       
0.221469694932      
0.240566280994      
0.430674383273      
0.446412612786      
-0.159373473082     
-0.267816023121     
-0.142859231377     
-0.121474493532     
-0.14333577944      
-0.100789617099     
-0.127117073286     
-0.107600151657     
-0.134695673293     
-0.123013903095     
-0.14319036761      
-0.142169262768     
-0.138112781879     
-0.146065687019     
-0.0997239817576    
-0.0969627501746    
0.0410435811169     
0.0810197250208     
0.433187199609      
0.463985717347      
-0.0683264141422    
-0.205070516297     
-0.422266390756     
-0.463719519749     
-0.351453844812     
-0.361659638244     
-0.253023763757     
-0.240867559783     
-0.162978154691     
-0.126573665702     
-0.0788381601865    
-0.0253942259695    
0.000345749982259   
0.0656946951684     
0.0737693857084     
0.159444965411      
0.205925500074      
0.2417960039        
0.440227932107      
0.454707215413      
-0.0759493644052    
-0.263205700269     
-0.12913519921      
-0.113660300572     
-0.155484110359     
-0.089998580912     
-0.13211452134      
-0.0974884792018    
-0.137203662691     
-0.113775411519     
-0.141923639931     
-0.134993825631     
-0.131405359509     
-0.14122712583      
-0.0897279632719    
-0.0946736968789    
0.0502375606489     
0.0791790866076     
0.430061441939      
0.456534284215      
-0.0849923917569    
-0.201134725096     
-0.428660052672     
-0.456684048908     
-0.354249177812     
-0.355224953242     
-0.256966388766     
-0.234699426311     
-0.17152821796      
-0.120259697984     
-0.0918301374959    
-0.0193779772531    
-0.0168646474269    
0.0695256792347     
0.0469888043521     
0.160189452932      
0.18954339055       
0.235023738429      
0.434962766546      
0.439261011741      
-0.0382274364718    
-0.274930454005     
-0.118514405286     
-0.100182078504     
-0.15252719503      
-0.0650991513997    
-0.131205657136     
-0.0774560828286    
-0.136888442326     
-0.0974838818173    
-0.142410191579     
-0.123254891336     
-0.131136438706     
-0.134957937969     
-0.0876962717903    
-0.093078174953     
0.0492199485423     
0.078225065254      
0.422656371961      
0.45199276002       
-0.0861641938801    
-0.210261586715     
-0.42365209592      
-0.459143514243     
-0.348917998869     
-0.354291049907     
-0.253053693099     
-0.229915254523     
-0.171151458643     
-0.112692311253     
-0.0928259443272    
-0.010309145945     
-0.0200007708777    
0.0788338789345     
0.0398145860543     
0.168608145667      
0.17710583863       
0.226389834823      
0.419237914478      
0.414215999601      
0.0768401479379     
-0.200622825565     
-0.083889358961     
-0.078740413147     
-0.145608385964     
-0.0500955280738    
-0.125463330815     
-0.0646352971086    
-0.13409105378      
-0.0920459977408    
-0.14775213716      
-0.121966787599     
-0.143372602475     
-0.137334757276     
-0.0933720256615    
-0.0992514032763    
0.0434418461343     
0.0701724602516     
0.41743407413       
0.44970876925       
-0.075016650103     
-0.197420877306     
-0.413130269828     
-0.4487265558       
-0.342152302527     
-0.345456090319     
-0.254716707564     
-0.222323048752     
-0.172918908439     
-0.107879899703     
-0.0925423361183    
-0.00562762959772   
-0.0254455607684    
0.0861582922358     
0.0192980157874     
0.16907087866       
0.150285645641      
0.22118402937       
0.398887518878      
0.400631022916      
0.023926497451      
-0.181886012107     
-0.0806486663243    
-0.0307350144293    
-0.0837678253705    
0.0181758467223     
-0.0674503562889    
-0.0311156605656    
-0.0808095678584    
-0.0787312390743    
-0.109157957749     
-0.117216184653     
-0.132480584561     
-0.137206361989     
-0.113152307936     
-0.108129064573     
0.021401676502      
0.0572070058694     
0.41383044203       
0.449744278268      
-0.0638070798401    
-0.158989000144     
-0.411259244492     
-0.418801005819     
-0.325805211847     
-0.312921178125     
-0.216485192145     
-0.191215523451     
-0.110527928947     
-0.0807355028812    
-0.0222391034101    
0.0205417359912     
0.0427880105239     
0.118807774145      
0.0785561760523     
0.209666830812      
0.140508684417      
0.215418124563      
0.327974603843      
0.34838612114       
-0.000346067877343  
1.23740460721e-05   
-0.0235523044114    
0.0336183698928     
-0.0480724647273    
-0.0509677737825    
-0.0854861540791    
-0.0763262908161    
-0.111378589085     
-0.0936751846035    
-0.132942084284     
-0.114075687487     
-0.14788394281      
-0.1187293715       
-0.136915308339     
-0.0724557411893    
-0.0230004725691    
0.0540846762433     
0.418126086667      
0.457747124648      
0.0706623615099     
-0.0423916121577    
-0.273448913281     
-0.251841673772     
-0.200929269987     
-0.192010466765     
-0.11747839593      
-0.144475230146     
-0.0378139690066    
-0.0889591624664    
0.0279709920648     
-0.0334287668254    
0.0895997677581     
0.0292458946448     
0.173551611859      
0.148503535063      
0.207324721531      
0.255690718272      
0.244671173677      
0.305737615485      
-0.103588847488     
-0.21741623582      
-0.174238437681     
-0.198159143243     
-0.161123639516     
-0.193138519391     
-0.154836459109     
-0.192590019805     
-0.158944938563     
-0.195670883945     
-0.174775145383     
-0.198540052425     
-0.198023115068     
-0.183029708043     
-0.207257847748     
-0.0814337893347    
-0.088464228723     
0.639018063009      
-0.0997042962692    
-0.21532452903      
-0.17905053233      
-0.19464175695      
-0.150346981222     
-0.193642971528     
-0.157761323248     
-0.200563753723     
-0.170211647841     
-0.211023473723     
-0.193737185152     
-0.221799614351     
-0.229106733777     
-0.222110365368     
-0.271483933993     
-0.191877122893     
-0.322297117478     
0.553810487984      
-0.0896696809838    
-0.18794721818      
-0.176491424775     
-0.171985814826     
-0.144849701255     
-0.175998352764     
-0.152287971375     
-0.188237524698     
-0.165866999505     
-0.204644583723     
-0.191355375361     
-0.222832893657     
-0.229239912971     
-0.232811744251     
-0.273625435394     
-0.219597643204     
-0.340019642098     
0.427781968035      
-0.0733524743702    
-0.165613635247     
-0.127822555646     
-0.133545487533     