# vtk DataFile Version 3.0
PyPan results file. Generated by PyPan, USU AeroLab (c) 2020.
ASCII
DATASET POLYDATA
POINTS 492 float
-4.75               -4.0                0.0                 
-4.75               4.0                 0.0                 
-4.7255282402       -4.00441503525      -0.00143460487016   
-4.7255282402       -4.00441503525      0.00143460487016    
-4.7255282402       -4.00272893906      -0.00375584419817   
-4.7255282402       -4.00272893906      0.00375584419817    
-4.7255282402       -4.0                -0.00464247865602   
-4.7255282402       -4.0                0.00464247865602    
-4.7255282402       4.0                 -0.00464247865602   
-4.7255282402       4.0                 0.00464247865602    
-4.7255282402       4.00272893906       -0.00375584419817   
-4.7255282402       4.00272893906       0.00375584419817    
-4.7255282402       4.00441503525       -0.00143460487016   
-4.7255282402       4.00441503525       0.00143460487016    
-4.6545085907       -4.01323318481      -0.00429976172745   
-4.6545085907       -4.01323318481      0.00429976172745    
-4.6545085907       -4.00817871094      -0.0112569229677    
-4.6545085907       -4.00817871094      0.0112569229677     
-4.6545085907       -4.0                -0.0139143215492    
-4.6545085907       -4.0                0.0139143215492     
-4.6545085907       4.0                 -0.0139143215492    
-4.6545085907       4.0                 0.0139143215492     
-4.6545085907       4.00817871094       -0.0112569229677    
-4.6545085907       4.00817871094       0.0112569229677     
-4.6545085907       4.01323318481       -0.00429976172745   
-4.6545085907       4.01323318481       0.00429976172745    
-4.65211296082      -3.90211296082      0.0                 
-4.65211296082      3.90211296082       0.0                 
-4.62764120102      -3.90211296082      -0.00464247865602   
-4.62764120102      -3.90211296082      0.00464247865602    
-4.62764120102      3.90211296082       -0.00464247865602   
-4.62764120102      3.90211296082       0.00464247865602    
-4.55662155151      -3.90211296082      -0.0139143215492    
-4.55662155151      -3.90211296082      0.0139143215492     
-4.55662155151      3.90211296082       -0.0139143215492    
-4.55662155151      3.90211296082       0.0139143215492     
-4.54389286041      -4.02558851242      -0.00831415317953   
-4.54389286041      -4.02558851242      0.00831415317953    
-4.54389286041      -4.01581430435      -0.0217667371035    
-4.54389286041      -4.01581430435      0.0217667371035     
-4.54389286041      -4.0                -0.0269051659852    
-4.54389286041      -4.0                0.0269051659852     
-4.54389286041      4.0                 -0.0269051659852    
-4.54389286041      4.0                 0.0269051659852     
-4.54389286041      4.01581430435       -0.0217667371035    
-4.54389286041      4.01581430435       0.0217667371035     
-4.54389286041      4.02558851242       -0.00831415317953   
-4.54389286041      4.02558851242       0.00831415317953    
-4.44600582123      -3.90211296082      -0.0269051659852    
-4.44600582123      -3.90211296082      0.0269051659852     
-4.44600582123      3.90211296082       -0.0269051659852    
-4.44600582123      3.90211296082       0.0269051659852     
-4.4045085907       -4.03891468048      -0.0126441745088    
-4.4045085907       -4.03891468048      0.0126441745088     
-4.4045085907       -4.02405071259      -0.0331028774381    
-4.4045085907       -4.02405071259      0.0331028774381     
-4.4045085907       -4.0                -0.0409174077213    
-4.4045085907       -4.0                0.0409174077213     
-4.4045085907       4.0                 -0.0409174077213    
-4.4045085907       4.0                 0.0409174077213     
-4.4045085907       4.02405071259       -0.0331028774381    
-4.4045085907       4.02405071259       0.0331028774381     
-4.4045085907       4.03891468048       -0.0126441745088    
-4.4045085907       4.03891468048       0.0126441745088     
-4.36803388596      -3.61803388596      0.0                 
-4.36803388596      3.61803388596       0.0                 
-4.34356212616      -3.61803388596      -0.00464247865602   
-4.34356212616      -3.61803388596      0.00464247865602    
-4.34356212616      3.61803388596       -0.00464247865602   
-4.34356212616      3.61803388596       0.00464247865602    
-4.30662155151      -3.90211296082      -0.0409174077213    
-4.30662155151      -3.90211296082      0.0409174077213     
-4.30662155151      3.90211296082       -0.0409174077213    
-4.30662155151      3.90211296082       0.0409174077213     
-4.27254247665      -3.61803388596      -0.0139143215492    
-4.27254247665      -3.61803388596      0.0139143215492     
-4.27254247665      3.61803388596       -0.0139143215492    
-4.27254247665      3.61803388596       0.0139143215492     
-4.25               -4.05034923553      -0.0163594372571    
-4.25               -4.05034923553      0.0163594372571     
-4.25               -4.03111743927      -0.0428295619786    
-4.25               -4.03111743927      0.0428295619786     
-4.25               -4.0                -0.0529402531683    
-4.25               -4.0                0.0529402531683     
-4.25               4.0                 -0.0529402531683    
-4.25               4.0                 0.0529402531683     
-4.25               4.03111743927       -0.0428295619786    
-4.25               4.03111743927       0.0428295619786     
-4.25               4.05034923553       -0.0163594372571    
-4.25               4.05034923553       0.0163594372571     
-4.16192674637      -3.61803388596      -0.0269051659852    
-4.16192674637      -3.61803388596      0.0269051659852     
-4.16192674637      3.61803388596       -0.0269051659852    
-4.16192674637      3.61803388596       0.0269051659852     
-4.15211296082      -3.90211296082      -0.0529402531683    
-4.15211296082      -3.90211296082      0.0529402531683     
-4.15211296082      3.90211296082       -0.0529402531683    
-4.15211296082      3.90211296082       0.0529402531683     
-4.0954914093       -4.05665874481      -0.0184096004814    
-4.0954914093       -4.05665874481      0.0184096004814     
-4.0954914093       -4.03501701355      -0.0481969565153    
-4.0954914093       -4.03501701355      0.0481969565153     
-4.0954914093       -4.0                -0.0595747157931    
-4.0954914093       -4.0                0.0595747157931     
-4.0954914093       4.0                 -0.0595747157931    
-4.0954914093       4.0                 0.0595747157931     
-4.0954914093       4.03501701355       -0.0481969565153    
-4.0954914093       4.03501701355       0.0481969565153     
-4.0954914093       4.05665874481       -0.0184096004814    
-4.0954914093       4.05665874481       0.0184096004814     
-4.02254247665      -3.61803388596      -0.0409174077213    
-4.02254247665      -3.61803388596      0.0409174077213     
-4.02254247665      3.61803388596       -0.0409174077213    
-4.02254247665      3.61803388596       0.0409174077213     
-3.99760460854      -3.90211296082      -0.0595747157931    
-3.99760460854      -3.90211296082      0.0595747157931     
-3.99760460854      3.90211296082       -0.0595747157931    
-3.99760460854      3.90211296082       0.0595747157931     
-3.95610737801      -4.05488920212      -0.0178346466273    
-3.95610737801      -4.05488920212      0.0178346466273     
-3.95610737801      -4.03392362595      -0.046691711992     
-3.95610737801      -4.03392362595      0.046691711992      
-3.95610737801      -4.0                -0.0577141307294    
-3.95610737801      -4.0                0.0577141307294     
-3.95610737801      4.0                 -0.0577141307294    
-3.95610737801      4.0                 0.0577141307294     
-3.95610737801      4.03392362595       -0.046691711992     
-3.95610737801      4.03392362595       0.046691711992      
-3.95610737801      4.05488920212       -0.0178346466273    
-3.95610737801      4.05488920212       0.0178346466273     
-3.92557048798      -3.17557048798      0.0                 
-3.92557048798      3.17557048798       0.0                 
-3.90109872818      -3.17557048798      -0.00464247865602   
-3.90109872818      -3.17557048798      0.00464247865602    
-3.90109872818      3.17557048798       -0.00464247865602   
-3.90109872818      3.17557048798       0.00464247865602    
-3.86803388596      -3.61803388596      -0.0529402531683    
-3.86803388596      -3.61803388596      0.0529402531683     
-3.86803388596      3.61803388596       -0.0529402531683    
-3.86803388596      3.61803388596       0.0529402531683     
-3.85822033882      -3.90211296082      -0.0577141307294    
-3.85822033882      -3.90211296082      0.0577141307294     
-3.85822033882      3.90211296082       -0.0577141307294    
-3.85822033882      3.90211296082       0.0577141307294     
-3.8454914093       -4.0437951088       -0.0142299029976    
-3.8454914093       -4.0437951088       0.0142299029976     
-3.8454914093       -4.02706670761      -0.037254370749     
-3.8454914093       -4.02706670761      0.037254370749      
-3.8454914093       -4.0                -0.0460489317775    
-3.8454914093       -4.0                0.0460489317775     
-3.8454914093       4.0                 -0.0460489317775    
-3.8454914093       4.0                 0.0460489317775     
-3.8454914093       4.02706670761       -0.037254370749     
-3.8454914093       4.02706670761       0.037254370749      
-3.8454914093       4.0437951088        -0.0142299029976    
-3.8454914093       4.0437951088        0.0142299029976     
-3.83007907867      -3.17557048798      -0.0139143215492    
-3.83007907867      -3.17557048798      0.0139143215492     
-3.83007907867      3.17557048798       -0.0139143215492    
-3.83007907867      3.17557048798       0.0139143215492     
-3.7744717598       -4.0246257782       -0.00800147373229   
[...]
CELL_DATA 980
SCALARS pressure_coefficient float 1
LOOKUP_TABLE default
-1.25071473952      
-1.20690918854      
-0.465500028943     
-0.366023907929     
-0.266585439517     
-0.195000508589     
-0.160720310788     
-0.146112920406     
-0.117181629674     
-0.137613097723     
-0.0608479018581    
-0.0636668627098    
-0.0207129582755    
0.0184423844688     
0.021966417318      
0.10463182219       
0.248835500409      
0.291926530814      
0.530914552637      
0.533426037204      
-0.12472378893      
-0.343707992582     
-0.343093943661     
-0.486757042548     
-0.385628311031     
-0.431046099769     
-0.232052799298     
-0.260769519602     
-0.113132420542     
-0.10738986127      
-0.0644596717219    
-0.0428133787446    
0.0712000529597     
0.0944943821337     
0.262500785968      
0.316266467338      
0.507032417083      
0.626799227373      
0.573437464527      
0.329189237508      
-0.808874622813     
-0.772048806806     
-0.332773332148     
-0.294629307863     
-0.20664037702      
-0.165562500575     
-0.151260343473     
-0.122507279217     
-0.122697050334     
-0.0942724496569    
-0.103676947171     
-0.0716674770788    
-0.0705939734775    
-0.0385987325645    
0.0282343421817     
0.022137444528      
0.191245318151      
0.205335030266      
0.453104132817      
0.469766886013      
-0.356072077113     
-0.68862055437      
-0.57144074793      
-0.786970228532     
-0.403478085899     
-0.543222694707     
-0.281636731044     
-0.336545142514     
-0.144837172988     
-0.1735615856       
-0.0116909149652    
-0.0215459122615    
0.10651596832       
0.122497238688      
0.217079476802      
0.263409135625      
0.339765436213      
0.380748932574      
0.496952723146      
0.496786919541      
-0.730138702544     
-0.661037512572     
-0.290692372477     
-0.223676006935     
-0.179180439864     
-0.128549393581     
-0.145840552856     
-0.118795212486     
-0.133201287269     
-0.11475267761      
-0.124744086345     
-0.110886461403     
-0.0986946082353    
-0.0926798318239    
-0.0281501834761    
-0.0149964991546    
0.136850243657      
0.206498795384      
0.460299862929      
0.461617353827      
-0.322761992649     
-0.648231217018     
-0.566185966513     
-0.724639475533     
-0.405209265153     
-0.503725888241     
-0.259147324899     
-0.305101517728     
-0.135421841753     
-0.139713650088     
-0.023317364117     
-0.00546366464161   
0.0790151787586     
0.114229126808      
0.185085230756      
0.238300560458      
0.305972060983      
0.327968045561      
0.483115378564      
0.496940555939      
-0.656287929463     
-0.618059467757     
-0.276723672414     
-0.221237538742     
-0.182749279962     
-0.138806769778     
-0.148515714831     
-0.12577925669      
-0.13842716793      
-0.123586728677     
-0.131504557788     
-0.124321347794     
-0.108785072666     
-0.106449998718     
-0.0454677940643    
-0.0271545630092    
0.126372287242      
0.188130142113      
0.470429543493      
0.474766516372      
-0.290684909935     
-0.515213895588     
-0.557511400023     
-0.63742565655      
-0.409175536617     
-0.44594563887      
-0.265847229802     
-0.27357452479      
-0.145289377617     
-0.126280014856     
-0.0373562077114    
-0.00253791550109   
0.0627394155419     
0.108348415093      
0.166056289898      
0.225768913391      
0.295583197314      
0.3196681169        
0.483812048255      
0.495129423278      
-0.513521879661     
-0.56780072616      
-0.260765916466     
-0.226116751578     
-0.205146166378     
-0.157367319983     
-0.158951575363     
-0.136268187791     
-0.14589357162      
-0.13132896221      
-0.134727356471     
-0.130522663018     
-0.106988506088     
-0.111014002974     
-0.0406221699959    
-0.0324764981194    
0.1325904681        
0.176318671114      
0.470224074457      
0.474483952558      
-0.296952419971     
-0.44879467676      
-0.562664652426     
-0.595724868813     
-0.415077024988     
-0.420217080799     
-0.275338095968     
-0.259976241072     
-0.159447275448     
-0.121028218577     
-0.056376520518     
-0.00226586100967   
0.0396186514987     
0.104108127965      
0.133191787073      
0.214920121183      
0.281457580286      
0.318664382095      
0.481309292938      
0.487772358555      
-0.406060330165     
-0.557135389044     
-0.244348870655     
-0.21632070547      
-0.216580940792     
-0.146030922597     
-0.163498985769     
-0.126212428179     
-0.148265199618     
-0.122539276412     
-0.133709645181     
-0.123985782679     
-0.101117972745     
-0.1069523102       
-0.0322117795842    
-0.0311900166235    
0.139139051199      
0.173297218047      
0.462630597377      
0.467689466574      
-0.312794182452     
-0.440565246818     
-0.567851330708     
-0.586689055012     
-0.417311681022     
-0.412928583957     
-0.279060934        
-0.253598924294     
-0.167676060027     
-0.11498467573      
-0.06879285916      
0.00311341902212    
0.0232968879253     
0.107033748042      
0.108339197448      
0.214341872885      
0.266068427207      
0.311129596289      
0.470172181479      
0.475502957303      
-0.342427620377     
-0.559766867743     
-0.228835484288     
-0.199883779862     
-0.213321624374     
-0.120939744169     
-0.162717872427     
-0.106769556943     
-0.148484408605     
-0.107197121794     
-0.134889896995     
-0.113241167601     
-0.101481246067     
-0.10158309665      
-0.0308297404035    
-0.0304055278135    
0.137185940598      
0.17135535656       
0.454818692473      
0.462952932339      
-0.311143159061     
-0.447561517912     
-0.56108774978      
-0.587515228715     
-0.411198315921     
-0.411055677775     
-0.274974930056     
-0.248433483449     
-0.167486753388     
-0.107571240938     
-0.0702787410242    
0.0114770224378     
0.0192811378103     
0.115007309076      
0.0996161578023     
0.220255825154      
0.252919669265      
0.302094690477      
0.457652517963      
0.462669842528      
-0.155319880078     
-0.449218991366     
-0.179796686423     
-0.171115067417     
-0.204769552538     
-0.105219395145     
-0.157304008859     
-0.0944430207175    
-0.147505497393     
-0.102683209678     
-0.142505498671     
-0.11278798688      
-0.115473102476     
-0.104578554037     
-0.0374965198365    
-0.0368966342883    
0.130581714751      
0.163518457345      
0.451088401751      
0.463596524058      
-0.293029242295     
-0.42970976642      
-0.546261601837     
-0.57454284769      
-0.401778190525     
-0.400664931707     
-0.27490223621      
-0.239662152152     
-0.168191769526     
-0.101856661022     
-0.0698956275927    
0.0166094584489     
0.0127271897588     
0.121848140858      
0.0764617896801     
0.219160081723      
0.224581724769      
0.295153100713      
0.445848130275      
0.450155930114      
-0.153825287515     
-0.382833313741     
-0.152491623645     
-0.104932909911     
-0.130272792575     
-0.0291028914719    
-0.0946735746247    
-0.0590958955374    
-0.0946641451817    
-0.0902620692276    
-0.108070319816     
-0.110493336106     
-0.111215125705     
-0.107383770977     
-0.0631133918272    
-0.0481385723436    
0.105817662835      
0.149942912426      
0.450008409566      
0.469808355281      
-0.267112741206     
-0.378506950299     
-0.533790571489     
-0.537684143246     
-0.377241782077     
-0.363035338397     
-0.229593663452     
-0.204217883983     
-0.100506729298     
-0.0707608573915    
0.00251691089572    
0.0460971814282     
0.0790627394178     
0.156329065354      
0.128297782987      
0.258152710003      
0.206863336479      
0.286656842499      
0.404230208667      
0.432203233656      
-0.0993273337756    
-0.11891554537      
-0.0688484950729    
-0.0221343164836    
-0.0812762642169    
-0.088674204353     
-0.108312196217     
-0.0990880820112    
-0.12442173915      
-0.104772956479     
-0.134889389158     
-0.111760305111     
-0.13451010643      
-0.097400952828     
-0.0999176854441    
-0.0233796205234    
0.0545026455458     
0.14139266398       
0.46069878288       
0.49154972574       
-0.0956344565585    
-0.233685110991     
-0.375514454177     
-0.35153117143      
-0.240006513549     
-0.231056368753     
-0.126373180166     
-0.152928861602     
-0.0297010854058    
-0.0787420281699    
0.0470231773512     
-0.00996937219911   
0.117572966364      
0.0646989861276     
0.212707005854      
0.199192069384      
0.264254781737      
0.329183636393      
0.325666450131      
0.411475382684      
-0.148552025352     
-0.262022805572     
-0.194747244241     
-0.240695340631     
-0.180866283294     
-0.23106328945      
-0.173580375868     
-0.22295866749      
-0.174443055032     
-0.217492710353     
-0.184610839585     
-0.209762671366     
-0.198115714013     
-0.178384775089     
-0.188107729498     
-0.0430332870294    
-0.0211997806446    
0.726499366429      
-0.148200221935     
-0.231640044778     
-0.259321269456     
-0.225871410491     
-0.209414020304     
-0.230312854543     
-0.206404851529     
-0.239275708366     
-0.211788047783     
-0.249066517065     
-0.229844536084     
-0.257922345169     
-0.260646976527     
-0.256053038911     
-0.299327592164     
-0.223048725477     
-0.33889443824      
0.573837539371      
-0.14239748244      
-0.18955363936      
-0.252964798298     
-0.192089798006     
-0.202534275895     
-0.20600361414      
-0.201088950499     
-0.224064760269     
-0.209269098135     
-0.243848993311     
-0.231666489607     
-0.265272905893     
-0.268531010595     
-0.280154136954     
-0.314360875647     
-0.276052680032     
-0.377480452829     
0.350365303449      
-0.0954685148113    
-0.126726204641     
-0.168210803615     
-0.12029333849      
-0.131564876356     
-0.136312011251     
-0.142278862014     
-0.16189668014      
-0.160572825387     
-0.193898418996     
-0.193132437655     
-0.233788730819     
-0.24233387339      
-0.276038721087     
-0.305302634369     
-0.323116798843     
-0.422827019708     
0.100569138875      
-0.017891025049     
-0.110153576606     
-0.183407546305     
-0.0689978386024    
-0.132643336688     
-0.0742526091246    
-0.127862777721     
-0.104601349625     
-0.141444102417     
-0.144318603932     
-0.177154265489     
-0.194870576805     
-0.239450174647     
-0.251133525138     
-0.329054187753     
-0.298894674649     
-0.444965018245     
0.00373251349902    
-1.25072268967      
-1.20690982063      
-0.465500295397     
-0.366027804539     
-0.266586046429     
-0.195001302962     
-0.160720201318     
-0.146112840352     
-0.117181233256     
-0.137612822678     
-0.0608479946392    
-0.0636671974861    
-0.0207130173242    
0.0184418428606     
0.0219667504136     
0.104631317685      
0.248835186302      
0.291926453999      
0.530915239539      
0.533427194089      
-0.124723715746     
-0.343708123969     
-0.343095371497     
-0.486758435717     
-0.385628314397     
-0.431046715269     
-0.232053047639     
-0.260770335265     
-0.11313258688      
-0.10739084971      
-0.0644592877101    
-0.0428139720729    
0.0712001119542     
0.0944936335052     
0.26249963349       
0.316264035665      
0.507031415721      
0.626795911808      
0.573438218427      
0.329196879261      
-0.808877828003     
-0.772050938835     
-0.332774183856     
-0.294631551013     
-0.206640802843     
-0.165565187554     
-0.151260908976     
-0.122509269551     
-0.122697593898     
-0.0942737920988    
-0.103677233581     
-0.0716683616194    
-0.0705944089137    
-0.0385994271222    
0.0282334404111     
0.0221372592724     
0.19124478375       
0.205335388443      
0.453105256569      
0.469767896806      
-0.356072422668     
-0.688618529468     
-0.571441716684     
-0.786969044689     
-0.403479294116     
-0.543222239444     
-0.281637204846     
-0.336545219076     
-0.14483755822      
-0.173561971132     
-0.0116913675299    
-0.0215465596429    
0.106515671769      
0.12249652328       
0.217079683314      
0.263408970112      
0.339766300597      
0.38075029519       
0.496953888598      
0.496787230653      
-0.730141689985     
-0.661038046591     
-0.290693369913     
-0.22367731135      
-0.179180259551     
-0.128550906411     
-0.145840608529     
-0.118796330175     
-0.13320128193      
-0.114753548577     
-0.124744155816     
-0.110886961738     
-0.0986949810833    
-0.0926801776208    
-0.0281507099576    
-0.0149966662221    
0.136850052873      
0.206498602542      
0.460300748917      
0.461618200377      
-0.32276098263      
-0.648227895509     
-0.56618739557      
-0.724638376986     
-0.405210312308     
-0.503725127977     
-0.259148160804     
-0.305101374644     
-0.135422331767     
-0.139714005559     
-0.023317538509     
-0.00546396148434   
0.0790154491223     
0.114228936434      
0.185085760294      
0.238300289744      
0.305972863608      
0.327969156541      
0.483116159249      
0.496941422535      
-0.656290167749     
-0.618059689712     
-0.276724730668     
-0.221238892594     
-0.18274962118      
-0.138808308113     
-0.148515769055     
-0.125780314553     
-0.138427213942     
-0.123587509755     
-0.131504482574     
-0.124321699525     
-0.108785225554     
-0.106450165078     
-0.0454679761992    
-0.0271546159555    
0.12637240928       
0.188130006256      
0.470430205397      
0.474767061186      
-0.290686368469     
-0.515212889953     
-0.557511870762     
-0.637424636398     
-0.409175689622     
-0.445944905307     
-0.265847795869     
-0.27357447161      
-0.14528986452      
-0.126280355043     
-0.0373562833799    
-0.00253819242624   
0.0627394674558     
0.10834818647       
0.166056345721      
0.225768291921      
0.295583877748      
0.319669219042      
0.483812570575      
0.495130017359      
-0.513522449574     
-0.567799351365     
-0.260765844825     
-0.226117171812     
-0.205145892781     
-0.15736878827      
-0.158951832796     
-0.136269051616     
-0.145893562607     
-0.131329611316     
-0.134727263788     
-0.130522875858     
-0.106988559732     
-0.111014221173     
-0.0406221629582    
-0.0324766572473    
0.132590948782      
0.176318820023      
0.470224458206      
0.474484197301      
-0.296953010715     
-0.44879387553      
-0.562663650424     
-0.595723017673     
-0.415077198656     
-0.420216744261     
-0.275338430458     
-0.259976297141     
-0.159447676006     
-0.121028644577     
-0.0563765651107    
-0.00226606902911   
0.0396189447676     
0.104107980926      
0.133191955839      
0.214920036983      
0.281458321757      
0.318665012693      
0.481309769623      
0.487772711904      
-0.406059565546     
-0.557134040438     
-0.244353092731     
-0.216323329386     
-0.216584308651     
-0.146032665234     
-0.163499207321     
-0.126213151814     
-0.148265207832     
-0.122539685039     
-0.133709528607     
-0.123985845303     
-0.101118128039     
-0.10695238235      
-0.0322117131003    
-0.0311902211355    
0.139139061379      
0.173297272537      
0.462630729379      
0.467689569458      
-0.312793635715     
-0.440564946092     
-0.567850609484     
-0.586688836895     
-0.417312218837     
-0.41292811994      
-0.279061297782     
-0.253599058099     
-0.167676681613     
-0.114985187524     
-0.0687936258579    
0.00311303484159    
0.0232966897332     
0.107033551476      
0.108338642806      
0.214342000564      
0.266066726766      
0.311129920059      
0.470172358811      
0.475503048025      
-0.3424158331       
-0.559766558232     
-0.228837003409     
-0.199884499694     
-0.213322159709     
-0.120938790994     
-0.162717385564     
-0.106768953363     
-0.148483801773     
-0.107196698626     
-0.134889037811     
-0.113240691521     
-0.101480490154     
-0.101583005393     
-0.0308296538695    
-0.030405376079     
0.137187434785      
0.171355136309      
0.454818661757      
0.462952733105      
-0.311149209853     
-0.447569082249     
-0.56108882479      
-0.587513224378     
-0.411198182873     
-0.411055619606     
-0.274974962612     
-0.248433480195     
-0.167487259175     
-0.107571519559     
-0.0702784413289    
0.0114773871119     
0.0192808280676     
0.115007429833      
0.0996168470785     
0.220256954115      
0.252919965008      
0.302095957793      
0.457652411611      
0.46266985351       
-0.155321768668     
-0.449221095329     
-0.179796182031     
-0.171114500855     
-0.204768820065     
-0.105219757092     
-0.157304687464     
-0.0944439253452    
-0.147505893846     
-0.102683133018     
-0.142504856785     
-0.112787584332     
-0.11547234682      
-0.104578233872     
-0.0374967324419    
-0.0368968183928    
0.130581365         
0.163518589443      
0.451088387264      
0.463596285943      
-0.293033188252     
-0.429715871758     
-0.546259809401     
-0.574543976955     
-0.401777791968     
-0.400665194481     
-0.274903068471     
-0.239662779415     
-0.168192923242     
-0.101857275057     
-0.0698966605999    
0.0166090814129     
0.0127267657461     
0.12184851426       
0.0764611529227     
0.219159226621      
0.224583032364      
0.295153665724      
0.44584836912       
0.450155761269      
-0.153838103291     
-0.382844094064     
-0.152495728825     
-0.104931318422     
-0.130273759107     
-0.0291027945807    
-0.0946739730135    
-0.0590958255175    
-0.0946640052301    
-0.0902617315884    
-0.108069621164     
-0.110492068201     
-0.111213610235     
-0.10738251553      
-0.0631135398305    
-0.0481386282455    
0.105818552274      
0.149943188641      
0.450008653854      
0.469808257654      
-0.267117958168     
-0.378514315079     
-0.5337922229       
-0.537686070493     
-0.377242284775     
-0.363035390932     
-0.229594680793     
-0.204218452773     
-0.100507539472     
-0.0707618589237    
0.00251736087721    
0.0460977598971     
0.0790650075304     
0.156330656635      
0.128301199497      
0.258153702222      
0.206865963549      
0.286656078746      
0.404231234133      
0.432203465528      
-0.0993367255773    
-0.11892247233      
-0.0688515175111    
-0.022138145884     
-0.0812781073949    
-0.088676195522     
-0.108311745551     
-0.0990892128603    
-0.124420902198     
-0.104773657849     
-0.134889190855     
-0.111760169199     
-0.134509302064     
-0.0974000668906    
-0.099916823937     
-0.0233782605047    
0.0545071370146     
0.141394784942      
0.460699522458      
0.491550350526      
-0.0956377523202    
-0.233688278219     
-0.37551632124      
-0.351534120569     
-0.240006546826     
-0.231056223875     
-0.126373170528     
-0.152929483204     
-0.0297001273533    
-0.0787423250417    
0.0470226288033     
-0.00997044328963   
0.117571370642      
0.0646983648121     
0.212705590235      
0.199190889751      
0.264256237198      
0.329185445624      
0.325671783003      
0.411482009227      
-0.148556230175     
-0.262018214773     
-0.19474857271      
-0.240702814619     
-0.180868205438     
-0.231061601561     
-0.173579701654     
-0.222958416042     
-0.174442627274     
-0.21749250718      
-0.184610690171     
-0.209760900539     
-0.198115954051     
-0.178386666295     
-0.188106373457     
-0.0430387746599    
-0.021198008429     
0.726491857661      
-0.148210465229     
-0.231632891391     
-0.25932558397      
-0.225880907063     
-0.209421466554     
-0.230315360183     
-0.206409204132     
-0.239272031818     
-0.211789417621     
-0.24906586396      
-0.229845976126     
-0.257922438779     
-0.260649513587     
-0.25604575935      
-0.299331057863     
-0.223048987618     
-0.338891528191     
0.57383688326       
-0.142409041652     
-0.189559840113     
-0.25296957677      
-0.192088601178     
-0.202537224097     
-0.206009020899     
-0.201090704061     
-0.224067440874     
-0.209270019425     
-0.243848487855     
-0.231666806612     
-0.265272663602     
-0.268531862721     
-0.280155235514     
-0.314362613329     
-0.276061601315     
-0.377485892555     
0.350354973986      
-0.0954728806045    
-0.126722252482     
-0.168216041749     
-0.120291099432     