# vtk DataFile Version 3.0
PyPan results file. Generated by PyPan, USU AeroLab (c) 2020.
ASCII
DATASET POLYDATA
POINTS 492 float
-4.75               -4.0                0.0                 
-4.75               4.0                 0.0                 
-4.7255282402       -4.00441503525      -0.00143460487016   
-4.7255282402       -4.00441503525      0.00143460487016    
-4.7255282402       -4.00272893906      -0.00375584419817   
-4.7255282402       -4.00272893906      0.00375584419817    
-4.7255282402       -4.0                -0.00464247865602   
-4.7255282402       -4.0                0.00464247865602    
-4.7255282402       4.0                 -0.00464247865602   
-4.7255282402       4.0                 0.00464247865602    
-4.7255282402       4.00272893906       -0.00375584419817   
-4.7255282402       4.00272893906       0.00375584419817    
-4.7255282402       4.00441503525       -0.00143460487016   
-4.7255282402       4.00441503525       0.00143460487016    
-4.6545085907       -4.01323318481      -0.00429976172745   
-4.6545085907       -4.01323318481      0.00429976172745    
-4.6545085907       -4.00817871094      -0.0112569229677    
-4.6545085907       -4.00817871094      0.0112569229677     
-4.6545085907       -4.0                -0.0139143215492    
-4.6545085907       -4.0                0.0139143215492     
-4.6545085907       4.0                 -0.0139143215492    
-4.6545085907       4.0                 0.0139143215492     
-4.6545085907       4.00817871094       -0.0112569229677    
-4.6545085907       4.00817871094       0.0112569229677     
-4.6545085907       4.01323318481       -0.00429976172745   
-4.6545085907       4.01323318481       0.00429976172745    
-4.65211296082      -3.90211296082      0.0                 
-4.65211296082      3.90211296082       0.0                 
-4.62764120102      -3.90211296082      -0.00464247865602   
-4.62764120102      -3.90211296082      0.00464247865602    
-4.62764120102      3.90211296082       -0.00464247865602   
-4.62764120102      3.90211296082       0.00464247865602    
-4.55662155151      -3.90211296082      -0.0139143215492    
-4.55662155151      -3.90211296082      0.0139143215492     
-4.55662155151      3.90211296082       -0.0139143215492    
-4.55662155151      3.90211296082       0.0139143215492     
-4.54389286041      -4.02558851242      -0.00831415317953   
-4.54389286041      -4.02558851242      0.00831415317953    
-4.54389286041      -4.01581430435      -0.0217667371035    
-4.54389286041      -4.01581430435      0.0217667371035     
-4.54389286041      -4.0                -0.0269051659852    
-4.54389286041      -4.0                0.0269051659852     
-4.54389286041      4.0                 -0.0269051659852    
-4.54389286041      4.0                 0.0269051659852     
-4.54389286041      4.01581430435       -0.0217667371035    
-4.54389286041      4.01581430435       0.0217667371035     
-4.54389286041      4.02558851242       -0.00831415317953   
-4.54389286041      4.02558851242       0.00831415317953    
-4.44600582123      -3.90211296082      -0.0269051659852    
-4.44600582123      -3.90211296082      0.0269051659852     
-4.44600582123      3.90211296082       -0.0269051659852    
-4.44600582123      3.90211296082       0.0269051659852     
-4.4045085907       -4.03891468048      -0.0126441745088    
-4.4045085907       -4.03891468048      0.0126441745088     
-4.4045085907       -4.02405071259      -0.0331028774381    
-4.4045085907       -4.02405071259      0.0331028774381     
-4.4045085907       -4.0                -0.0409174077213    
-4.4045085907       -4.0                0.0409174077213     
-4.4045085907       4.0                 -0.0409174077213    
-4.4045085907       4.0                 0.0409174077213     
-4.4045085907       4.02405071259       -0.0331028774381    
-4.4045085907       4.02405071259       0.0331028774381     
-4.4045085907       4.03891468048       -0.0126441745088    
-4.4045085907       4.03891468048       0.0126441745088     
-4.36803388596      -3.61803388596      0.0                 
-4.36803388596      3.61803388596       0.0                 
-4.34356212616      -3.61803388596      -0.00464247865602   
-4.34356212616      -3.61803388596      0.00464247865602    
-4.34356212616      3.61803388596       -0.00464247865602   
-4.34356212616      3.61803388596       0.00464247865602    
-4.30662155151      -3.90211296082      -0.0409174077213    
-4.30662155151      -3.90211296082      0.0409174077213     
-4.30662155151      3.90211296082       -0.0409174077213    
-4.30662155151      3.90211296082       0.0409174077213     
-4.27254247665      -3.61803388596      -0.0139143215492    
-4.27254247665      -3.61803388596      0.0139143215492     
-4.27254247665      3.61803388596       -0.0139143215492    
-4.27254247665      3.61803388596       0.0139143215492     
-4.25               -4.05034923553      -0.0163594372571    
-4.25               -4.05034923553      0.0163594372571     
-4.25               -4.03111743927      -0.0428295619786    
-4.25               -4.03111743927      0.0428295619786     
-4.25               -4.0                -0.0529402531683    
-4.25               -4.0                0.0529402531683     
-4.25               4.0                 -0.0529402531683    
-4.25               4.0                 0.0529402531683     
-4.25               4.03111743927       -0.0428295619786    
-4.25               4.03111743927       0.0428295619786     
-4.25               4.05034923553       -0.0163594372571    
-4.25               4.05034923553       0.0163594372571     
-4.16192674637      -3.61803388596      -0.0269051659852    
-4.16192674637      -3.61803388596      0.0269051659852     
-4.16192674637      3.61803388596       -0.0269051659852    
-4.16192674637      3.61803388596       0.0269051659852     
-4.15211296082      -3.90211296082      -0.0529402531683    
-4.15211296082      -3.90211296082      0.0529402531683     
-4.15211296082      3.90211296082       -0.0529402531683    
-4.15211296082      3.90211296082       0.0529402531683     
-4.0954914093       -4.05665874481      -0.0184096004814    
-4.0954914093       -4.05665874481      0.0184096004814     
-4.0954914093       -4.03501701355      -0.0481969565153    
-4.0954914093       -4.03501701355      0.0481969565153     
-4.0954914093       -4.0                -0.0595747157931    
-4.0954914093       -4.0                0.0595747157931     
-4.0954914093       4.0                 -0.0595747157931    
-4.0954914093       4.0                 0.0595747157931     
-4.0954914093       4.03501701355       -0.0481969565153    
-4.0954914093       4.03501701355       0.0481969565153     
-4.0954914093       4.05665874481       -0.0184096004814    
-4.0954914093       4.05665874481       0.0184096004814     
-4.02254247665      -3.61803388596      -0.0409174077213    
-4.02254247665      -3.61803388596      0.0409174077213     
-4.02254247665      3.61803388596       -0.0409174077213    
-4.02254247665      3.61803388596       0.0409174077213     
-3.99760460854      -3.90211296082      -0.0595747157931    
-3.99760460854      -3.90211296082      0.0595747157931     
-3.99760460854      3.90211296082       -0.0595747157931    
-3.99760460854      3.90211296082       0.0595747157931     
-3.95610737801      -4.05488920212      -0.0178346466273    
-3.95610737801      -4.05488920212      0.0178346466273     
-3.95610737801      -4.03392362595      -0.046691711992     
-3.95610737801      -4.03392362595      0.046691711992      
-3.95610737801      -4.0                -0.0577141307294    
-3.95610737801      -4.0                0.0577141307294     
-3.95610737801      4.0                 -0.0577141307294    
-3.95610737801      4.0                 0.0577141307294     
-3.95610737801      4.03392362595       -0.046691711992     
-3.95610737801      4.03392362595       0.046691711992      
-3.95610737801      4.05488920212       -0.0178346466273    
-3.95610737801      4.05488920212       0.0178346466273     
-3.92557048798      -3.17557048798      0.0                 
-3.92557048798      3.17557048798       0.0                 
-3.90109872818      -3.17557048798      -0.00464247865602   
-3.90109872818      -3.17557048798      0.00464247865602    
-3.90109872818      3.17557048798       -0.00464247865602   
-3.90109872818      3.17557048798       0.00464247865602    
-3.86803388596      -3.61803388596      -0.0529402531683    
-3.86803388596      -3.61803388596      0.0529402531683     
-3.86803388596      3.61803388596       -0.0529402531683    
-3.86803388596      3.61803388596       0.0529402531683     
-3.85822033882      -3.90211296082      -0.0577141307294    
-3.85822033882      -3.90211296082      0.0577141307294     
-3.85822033882      3.90211296082       -0.0577141307294    
-3.85822033882      3.90211296082       0.0577141307294     
-3.8454914093       -4.0437951088       -0.0142299029976    
-3.8454914093       -4.0437951088       0.0142299029976     
-3.8454914093       -4.02706670761      -0.037254370749     
-3.8454914093       -4.02706670761      0.037254370749      
-3.8454914093       -4.0                -0.0460489317775    
-3.8454914093       -4.0                0.0460489317775     
-3.8454914093       4.0                 -0.0460489317775    
-3.8454914093       4.0                 0.0460489317775     
-3.8454914093       4.02706670761       -0.037254370749     
-3.8454914093       4.02706670761       0.037254370749      
-3.8454914093       4.0437951088        -0.0142299029976    
-3.8454914093       4.0437951088        0.0142299029976     
-3.83007907867      -3.17557048798      -0.0139143215492    
-3.83007907867      -3.17557048798      0.0139143215492     
-3.83007907867      3.17557048798       -0.0139143215492    
-3.83007907867      3.17557048798       0.0139143215492     
-3.7744717598       -4.0246257782       -0.00800147373229   
[...]
CELL_DATA 980
SCALARS pressure_coefficient float 1
LOOKUP_TABLE default
-1.94318369611      
-1.82850255458      
-0.631045832416     
-0.502424441331     
-0.33772407301      
-0.237603517216     
-0.184485027412     
-0.150931889316     
-0.112512299591     
-0.119405056386     
-0.0365506320381    
-0.0315821464693    
0.0222892143832     
0.0663287238568     
0.0883880633402     
0.171545604871      
0.334984462037      
0.368385857941      
0.542762555678      
0.520285058072      
-0.328338485667     
-0.536077821648     
-0.463908302357     
-0.596363858193     
-0.450957323019     
-0.492674860719     
-0.262308086554     
-0.290597779415     
-0.120457103579     
-0.113238132026     
-0.0537538685019    
-0.0308420260223    
0.102373046004      
0.128108513798      
0.32129558438       
0.382589114353      
0.595640716551      
0.72070728407       
0.485673498955      
-0.118876530406     
-1.3182837292       
-1.21047660848      
-0.471948318298     
-0.434117224254     
-0.273351357964     
-0.230387999007     
-0.182711452637     
-0.146692515719     
-0.130148090799     
-0.0920308840148    
-0.0893060481387    
-0.0480738361332    
-0.0333536056813    
0.00543357805971    
0.0897690770946     
0.0878679735023     
0.270601004439      
0.285993390497      
0.443018037183      
0.430299412364      
-0.624557272898     
-0.960660851629     
-0.720075066083     
-0.926496161486     
-0.472207535191     
-0.609768742756     
-0.309338061024     
-0.364259516758     
-0.144721532136     
-0.174481950118     
0.00992383403764    
0.000486034481512   
0.14647841306       
0.165879039282      
0.274036048954      
0.323248777829      
0.408423914858      
0.453476292863      
0.473555498135      
0.388655085455      
-1.19956784969      
-1.03334294273      
-0.420770323962     
-0.341359673972     
-0.243668794567     
-0.190059628371     
-0.177597910181     
-0.148278770139     
-0.142916652696     
-0.120718886919     
-0.113907057956     
-0.0949247484568    
-0.0647061713155    
-0.0534484255217    
0.0323237287688     
0.0500657285768     
0.220804042753      
0.287786477469      
0.456816266414      
0.409186854323      
-0.597075190437     
-0.948581015744     
-0.71640357446      
-0.869333535292     
-0.469419639844     
-0.565098048241     
-0.280270441773     
-0.323518585107     
-0.130627329701     
-0.131825917528     
-0.000261980724841  
0.0204988413468     
0.117222809344      
0.154508924459      
0.238444728753      
0.291524461047      
0.371420168099      
0.397855413477      
0.483995595277      
0.461795112239      
-1.1092480005       
-0.975023071764     
-0.404344874042     
-0.333817808388     
-0.245946579769     
-0.196991558282     
-0.179342669961     
-0.153559926473     
-0.147621740632     
-0.129871703702     
-0.120574444047     
-0.110206581281     
-0.0751711259624    
-0.0694068065769    
0.0144567728133     
0.0366482078555     
0.211308540927      
0.27198276974       
0.472160686832      
0.435477924371      
-0.558845712686     
-0.803975221277     
-0.705664962999     
-0.777599928125     
-0.472283523684     
-0.504167296028     
-0.285881534033     
-0.290097519386     
-0.13976114383      
-0.11779995252      
-0.0138878214667    
0.0229402733497     
0.101254267012      
0.147660135748      
0.220178190157      
0.278368795955      
0.360899023845      
0.387577892874      
0.484244319302      
0.46154566214       
-0.944404500458     
-0.91592673352      
-0.386687581897     
-0.336886137456     
-0.267317437321     
-0.214125303405     
-0.188947309529     
-0.163009216665     
-0.154461733915     
-0.136991940314     
-0.123539572142     
-0.116206198737     
-0.073870991996     
-0.0741772965321    
0.0179875203948     
0.0308692886209     
0.215673224397      
0.26094117482       
0.469522025885      
0.44299659811       
-0.562650908132     
-0.726423293854     
-0.709460994674     
-0.732588017553     
-0.477650505974     
-0.477359858576     
-0.294931827956     
-0.276313960574     
-0.153103471537     
-0.112771978936     
-0.0316949940256    
0.0228804383406     
0.0798527138613     
0.143190501659      
0.190712533848      
0.267967281563      
0.348229589841      
0.384728015979      
0.471731550826      
0.442051211848      
-0.814127880885     
-0.89864173571      
-0.367722355085     
-0.325241084941     
-0.277999400389     
-0.202405691202     
-0.193044260302     
-0.153095922529     
-0.156698708445     
-0.128692792484     
-0.122768700505     
-0.110310653598     
-0.0688100495754    
-0.0708526025913    
0.0249197698708     
0.031265661644      
0.219864706302      
0.257041397452      
0.458291062828      
0.437643714973      
-0.577145957668     
-0.713377101066     
-0.713376606137     
-0.721499981024     
-0.479331396961     
-0.469235043748     
-0.298429834162     
-0.269752235905     
-0.160990714408     
-0.107010839223     
-0.0435104945417    
0.0276399338078     
0.0644512852902     
0.145279352397      
0.167816627881      
0.266238423681      
0.333968852227      
0.376643209531      
0.45585955315       
0.432937003758      
-0.72006163896      
-0.889749569275     
-0.346997454959     
-0.305924106206     
-0.274523833842     
-0.177417593013     
-0.192427693585     
-0.134370692832     
-0.157467203112     
-0.114358229308     
-0.124631624809     
-0.100572487925     
-0.0697709177616    
-0.0663560890221    
0.0257092074212     
0.0313169163306     
0.21710906378       
0.254338054779      
0.450446888769      
0.433415340746      
-0.572290716295     
-0.717482860542     
-0.704802564505     
-0.720514814026     
-0.472448339899     
-0.466384474702     
-0.294192395208     
-0.264214862133     
-0.160990707292     
-0.0997676663676    
-0.0454523460514    
0.035308120886      
0.0596665112392     
0.151997523083      
0.157872977627      
0.269926117446      
0.320647090891      
0.367422844783      
0.447342629919      
0.430962468684      
-0.445689157023     
-0.737098979276     
-0.281802135623     
-0.269115740396     
-0.264144924625     
-0.160947333447     
-0.187292819702     
-0.122523120696     
-0.158305667272     
-0.110763227136     
-0.13448731019      
-0.100949510201     
-0.0854268385624    
-0.0699478303343    
0.0181782065903     
0.0245767932431     
0.209950730251      
0.246941219706      
0.449277171456      
0.437785475687      
-0.545778166421     
-0.693841180836     
-0.685216240411     
-0.704789823474     
-0.460236015384     
-0.454393566812     
-0.292355857505     
-0.25427099946      
-0.160643158635     
-0.093171164705     
-0.0449496231122    
0.0408787702166     
0.0521982456329     
0.158406728896      
0.132804338109      
0.267591469793      
0.292334427324      
0.359403044067      
0.44890648391       
0.422507134406      
-0.363101099632     
-0.610250106159     
-0.226527564429     
-0.182229743535     
-0.175882807225     
-0.0761147005948    
-0.119736547149     
-0.0850681004844    
-0.105930396331     
-0.0991924741756    
-0.104321489431     
-0.101128796302     
-0.0877377462508    
-0.0756348050513    
-0.0127799037858    
0.0112165717974     
0.183542018287      
0.233444594603      
0.454095591183      
0.452408053881      
-0.500955915648     
-0.62804003399      
-0.660756317433     
-0.660546812365     
-0.427137426797     
-0.411609038603     
-0.240019129503     
-0.214573106513     
-0.0879189057006    
-0.0582562293958    
0.0293685057307     
0.0735860426133     
0.116751908139      
0.19475663988       
0.178138250978      
0.305458712318      
0.269713232727      
0.350480539808      
0.452201697122      
0.456968715596      
-0.206956450383     
-0.249542991258     
-0.113222478074     
-0.0778513803436    
-0.112364994519     
-0.124387188559     
-0.128878767099     
-0.11945809418      
-0.135346761057     
-0.11347257418      
-0.134942425661     
-0.107210023735     
-0.119682584277     
-0.0744271898349    
-0.0626921945976    
0.0253872339382     
0.126916283248      
0.221006917353      
0.477227891787      
0.49319090779       
-0.287577518041     
-0.451484227092     
-0.480839127749     
-0.454653896031     
-0.278093886922     
-0.268994388012     
-0.133645389854     
-0.159421146015     
-0.0200035996718    
-0.0665032850543    
0.0674977271902     
0.0153344909197     
0.146772792003      
0.101612581741      
0.252643975219      
0.250193483952      
0.320435316666      
0.398999089241      
0.396630065072      
0.489581626724      
-0.204662150961     
-0.318272072694     
-0.22212987931      
-0.292172083316     
-0.206348439133     
-0.27640503839      
-0.197600341368     
-0.259735023091     
-0.19478958418      
-0.245095898401     
-0.198968760064     
-0.226476771945     
-0.202603563022     
-0.179471379473     
-0.173577075471     
-0.0121334909718    
0.0387814361511     
0.793708233072      
-0.228286110632     
-0.27632118805      
-0.364663989842     
-0.279429799879     
-0.288635095299     
-0.286097235068     
-0.272453786235     
-0.295135901554     
-0.269051457161     
-0.302950920692     
-0.280736365468     
-0.309388547397     
-0.307088459148     
-0.306064584121     
-0.343917066284     
-0.273430773261     
-0.378541735679     
0.563393718967      
-0.239922448002     
-0.22853719214      
-0.358969906801     
-0.239497386969     
-0.284933994626     
-0.25912159031      
-0.271668170479     
-0.280608115727     
-0.2725166282       
-0.302223313521     
-0.290747474831     
-0.326260198481     
-0.326615944718     
-0.346744208149     
-0.375732235842     
-0.354788539107     
-0.440976574095     
0.238519046473      
-0.154109084428     
-0.124865658628     
-0.233053345933     
-0.130689111625     
-0.181145171549     
-0.157779470251     
-0.185331847968     
-0.190891986756     
-0.200345113243     
-0.22892308844      
-0.232586057496     
-0.276311175723     
-0.28482667377      
-0.330326599419     
-0.35539094536      
-0.400774483505     
-0.484345386521     
-0.0811371314695    
0.00182665946796    
-0.0602686692352    
-0.20195600726      
-0.0360267338643    
-0.147811133881     
-0.0577805241704    
-0.140939783787     
-0.100281578647     
-0.154746119209     
-0.150545680611     
-0.194131555851     
-0.213973730987     
-0.266005847834     
-0.290706488477     
-0.376508873811     
-0.382335536082     
-0.544678539281     
-0.189069414697     
-1.94319438223      
-1.82850371941      
-0.631046135756     
-0.502428924738     
-0.337724698797     
-0.237604388736     
-0.184484888944     
-0.150931801596     
-0.112511863093     
-0.119404754692     
-0.0365507406159    
-0.0315825168258    
0.0222891548341     
0.0663281407523     
0.0883884158958     
0.171545074436      
0.334984098276      
0.368385858173      
0.54276344057       
0.520286389989      
-0.328338548922     
-0.536078119152     
-0.463909958638     
-0.596365499755     
-0.450957318964     
-0.492675569157     
-0.26230836458      
-0.290598704255     
-0.120457280468     
-0.113239237279     
-0.0537534356578    
-0.0308426844826    
0.102373101902      
0.128107682426      
0.321294308291      
0.382586466174      
0.595639626927      
0.720704136931      
0.485674301542      
-0.118863583056     
-1.31828792106      
-1.21047950466      
-0.471949443824     
-0.43412006806      
-0.273351896625     
-0.230391171393     
-0.182712101537     
-0.146694775196     
-0.130148704001     
-0.092032386682     
-0.0893063836525    
-0.0480748186004    
-0.0333540834186    
0.0054328332786     
0.0897681193636     
0.0878678080818     
0.270600580194      
0.285993833987      
0.443019490849      
0.43030071392       
-0.624557911599     
-0.960658455406     
-0.720076254764     
-0.926494800567     
-0.472208907694     
-0.609768230266     
-0.309338580919     
-0.364259597583     
-0.144721947888     
-0.174482362366     
0.00992334257099    
0.000485325305439   
0.146478102178      
0.165878267542      
0.274036301893      
0.323248642695      
0.408424902062      
0.453477720828      
0.473556779224      
0.38865381215       
-1.19957147632      
-1.03334353345      
-0.420771592208     
-0.341361413839     
-0.243668690473     
-0.190061528223     
-0.177597987028     
-0.148280070066     
-0.142916665427     
-0.120719862157     
-0.113907156288     
-0.0949253182804    
-0.0647065963289    
-0.0534487960604    
0.0323231788056     
0.0500655877144     
0.220803987509      
0.287786406801      
0.45681746214       
0.409188137371      
-0.597073996334     
-0.948576917974     
-0.716405309533     
-0.869332219833     
-0.469420863099     
-0.565097166605     
-0.280271380239     
-0.323518411195     
-0.130627858422     
-0.131826287509     
-0.00026216211784   
0.0204985237648     
0.117223103457      
0.154508732573      
0.238445287293      
0.291524241685      
0.371421081181      
0.397856570444      
0.483996638757      
0.461795039841      
-1.10925043072      
-0.975022963319     
-0.404346102773     
-0.333819475471     
-0.245946989733     
-0.196993433241     
-0.179342751276     
-0.153561136562     
-0.147621798818     
-0.129872576474     
-0.120574386908     
-0.110206989447     
-0.0751712883289    
-0.0694070005147    
0.0144566160199     
0.0366481477517     
0.211308737791      
0.271982684951      
0.472161401707      
0.435478851636      
-0.558847819287     
-0.803973918247     
-0.705665552564     
-0.777598695551     
-0.472283720493     
-0.504166449398     
-0.285882154444     
-0.290097431126     
-0.139761661145     
-0.117800293971     
-0.0138879061673    
0.0229399852825     
0.101254335223      
0.147659911204      
0.220178238881      
0.278368215379      
0.360899727126      
0.387578979337      
0.484245009253      
0.461545440485      
-0.944405260723     
-0.915924862189     
-0.386687590753     
-0.336886744173     
-0.267317175032     
-0.214126897896     
-0.188947544298     
-0.163010152184     
-0.154461700203     
-0.136992621461     
-0.123539471833     
-0.116206434887     
-0.0738710378382    
-0.0741775198184    
0.0179875567281     
0.0308691420713     
0.215673694523      
0.260941313563      
0.469522365724      
0.442996953917      
-0.562651627944     
-0.726422351513     
-0.709459779056     
-0.732585945859     
-0.477650677496     
-0.47735949806      
-0.294932162104     
-0.276314018103     
-0.153103850547     
-0.112772414995     
-0.0316950077148    
0.0228802242476     
0.0798530424589     
0.143190371492      
0.190712823483      
0.267967245669      
0.348230294015      
0.384728644579      
0.471731971903      
0.442050799283      
-0.814127095682     
-0.898639758835     
-0.36772703884      
-0.325243990798     
-0.278002792735     
-0.20240755633      
-0.193044426953     
-0.153096693661     
-0.156698676839     
-0.128693222907     
-0.122768575819     
-0.110310734995     
-0.0688102155123    
-0.070852680757     
0.0249198205196     
0.031265489343      
0.219864792726      
0.257041486098      
0.45829138069       
0.437643706616      
-0.57714514911      
-0.713376681484     
-0.713375708552     
-0.721499722595     
-0.479331927588     
-0.469234552974     
-0.298430197301     
-0.269752382678     
-0.160991311544     
-0.107011366817     
-0.043511172487     
0.0276395416532     
0.0644511611703     
0.145279147003      
0.167816279284      
0.266238567382      
0.333967599439      
0.376643559181      
0.455859265897      
0.432936242657      
-0.720046503931     
-0.889748523576     
-0.346999087207     
-0.305924718032     
-0.274524415136     
-0.177416844373     
-0.192427190682     
-0.134370164887     
-0.157466569198     
-0.114357829337     
-0.124630754845     
-0.10057204278      
-0.0697701530167    
-0.0663560089844    
0.0257093536735     
0.0313170781556     
0.217110401575      
0.254337977658      
0.450446661807      
0.43341441652       
-0.572298745355     
-0.717492241455     
-0.704803813189     
-0.720512455225     
-0.472448163808     
-0.466384350896     
-0.294192431619     
-0.264214849474     
-0.160991225961     
-0.0997679627765    
-0.0454520591119    
0.0353084445501     
0.0596662269039     
0.151997594021      
0.157873574747      
0.269927107863      
0.32064746178       
0.367423972596      
0.447343228947      
0.430961742454      
-0.445692519611     
-0.737102239708     
-0.281801631067     
-0.269115219135     
-0.26414402344      
-0.160947773581     
-0.187293437818     
-0.122524010091     
-0.158306052758     
-0.110763124274     
-0.134486667647     
-0.100949086622     
-0.0854261166737    
-0.0699475136104    
0.018178008519      
0.024576629518      
0.209950435611      
0.246941377396      
0.449276739845      
0.437785213805      
-0.545783178316     
-0.693848581837     
-0.68521411793      
-0.704791046127     
-0.46023554355      
-0.454393810825     
-0.292356684294     
-0.25427162614      
-0.160644275656     
-0.0931717713773    
-0.0449505848251    
0.0408784047249     
0.0521978987746     
0.158407098186      
0.132803784156      
0.267590663651      
0.292335563407      
0.359403470456      
0.448905750405      
0.422506347892      
-0.363117182584     
-0.610263554862     
-0.226532552066     
-0.182228840331     
-0.17588395797      
-0.0761146492673    
-0.119736846159     
-0.0850680043797    
-0.105930219114     
-0.0991921748549    
-0.104320809124     
-0.101127540352     
-0.0877362614765    
-0.0756335759265    
-0.012780038286     
0.0112165246438     
0.183542832761      
0.233444793336      
0.454095420029      
0.452407964723      
-0.500962652387     
-0.628049087302     
-0.660758239078     
-0.660548990628     
-0.427138088605     
-0.41160910791      
-0.240020192779     
-0.214573675453     
-0.0879196705246    
-0.058257213349     
0.0293690915445     
0.0735866488717     
0.116754264476      
0.194758210005      
0.178141694404      
0.305459651006      
0.26971571174       
0.350479795198      
0.452202036972      
0.456968489883      
-0.20696841747      
-0.249552459803     
-0.113225985346     
-0.0778562302504    
-0.112367073759     
-0.124389424627     
-0.128878210486     
-0.11945924248      
-0.135345749013     
-0.113473321202     
-0.134942218633     
-0.107209884846     
-0.119681855262     
-0.0744262688185    
-0.062691358826     
0.0253885454748     
0.126920445557      
0.221008855098      
0.47722853397       
0.493191475688      
-0.287581857224     
-0.451488008089     
-0.480841373455     
-0.454657154814     
-0.278094151571     
-0.268994265223     
-0.133645258318     
-0.159421656838     
-0.020002480327     
-0.0665035299928    
0.0674971546158     
0.0153333830917     
0.146771163252      
0.101611950989      
0.252642679105      
0.250192306885      
0.320436734668      
0.399000625357      
0.39663443923       
0.489587006496      
-0.204666805444     
-0.318260092114     
-0.222132124266     
-0.292184058288     
-0.206350903848     
-0.276403459614     
-0.197599518403     
-0.25973458104      
-0.19478918728      
-0.245095549993     
-0.198968585148     
-0.226475309771     
-0.202603905665     
-0.179473707787     
-0.173575458162     
-0.0121392084173    
0.0387834548611     
0.793700742826      
-0.228303860762     
-0.276299963676     
-0.364671384582     
-0.279446686315     
-0.288646480937     
-0.286101387507     
-0.272459745349     
-0.295131723946     
-0.269053070362     
-0.302950181064     
-0.280738281654     
-0.30938934061      
-0.307092158896     
-0.306056949267     
-0.343921426355     
-0.273431513868     
-0.378537003826     
0.563392740907      
-0.239944782151     
-0.22855614741      
-0.35897725968      
-0.239498489669     
-0.284939756123     
-0.2591305161       
-0.271671497816     
-0.280612850032     
-0.272517847685     
-0.302223422134     
-0.290747904752     
-0.326260282425     
-0.326617907658     
-0.346746297798     
-0.3757353245       
-0.354799778066     
-0.440983244884     
0.238505362817      
-0.154115710472     
-0.124855408851     
-0.233062765163     
-0.130687117108     