# vtk DataFile Version 3.0
PyPan results file. Generated by PyPan, USU AeroLab (c) 2020.
ASCII
DATASET POLYDATA
POINTS 492 float
-4.75               -4.0                0.0                 
-4.75               4.0                 0.0                 
-4.7255282402       -4.00441503525      -0.00143460487016   
-4.7255282402       -4.00441503525      0.00143460487016    
-4.7255282402       -4.00272893906      -0.00375584419817   
-4.7255282402       -4.00272893906      0.00375584419817    
-4.7255282402       -4.0                -0.00464247865602   
-4.7255282402       -4.0                0.00464247865602    
-4.7255282402       4.0                 -0.00464247865602   
-4.7255282402       4.0                 0.00464247865602    
-4.7255282402       4.00272893906       -0.00375584419817   
-4.7255282402       4.00272893906       0.00375584419817    
-4.7255282402       4.00441503525       -0.00143460487016   
-4.7255282402       4.00441503525       0.00143460487016    
-4.6545085907       -4.01323318481      -0.00429976172745   
-4.6545085907       -4.01323318481      0.00429976172745    
-4.6545085907       -4.00817871094      -0.0112569229677    
-4.6545085907       -4.00817871094      0.0112569229677     
-4.6545085907       -4.0                -0.0139143215492    
-4.6545085907       -4.0                0.0139143215492     
-4.6545085907       4.0                 -0.0139143215492    
-4.6545085907       4.0                 0.0139143215492     
-4.6545085907       4.00817871094       -0.0112569229677    
-4.6545085907       4.00817871094       0.0112569229677     
-4.6545085907       4.01323318481       -0.00429976172745   
-4.6545085907       4.01323318481       0.00429976172745    
-4.65211296082      -3.90211296082      0.0                 
-4.65211296082      3.90211296082       0.0                 
-4.62764120102      -3.90211296082      -0.00464247865602   
-4.62764120102      -3.90211296082      0.00464247865602    
-4.62764120102      3.90211296082       -0.00464247865602   
-4.62764120102      3.90211296082       0.00464247865602    
-4.55662155151      -3.90211296082      -0.0139143215492    
-4.55662155151      -3.90211296082      0.0139143215492     
-4.55662155151      3.90211296082       -0.0139143215492    
-4.55662155151      3.90211296082       0.0139143215492     
-4.54389286041      -4.02558851242      -0.00831415317953   
-4.54389286041      -4.02558851242      0.00831415317953    
-4.54389286041      -4.01581430435      -0.0217667371035    
-4.54389286041      -4.01581430435      0.0217667371035     
-4.54389286041      -4.0                -0.0269051659852    
-4.54389286041      -4.0                0.0269051659852     
-4.54389286041      4.0                 -0.0269051659852    
-4.54389286041      4.0                 0.0269051659852     
-4.54389286041      4.01581430435       -0.0217667371035    
-4.54389286041      4.01581430435       0.0217667371035     
-4.54389286041      4.02558851242       -0.00831415317953   
-4.54389286041      4.02558851242       0.00831415317953    
-4.44600582123      -3.90211296082      -0.0269051659852    
-4.44600582123      -3.90211296082      0.0269051659852     
-4.44600582123      3.90211296082       -0.0269051659852    
-4.44600582123      3.90211296082       0.0269051659852     
-4.4045085907       -4.03891468048      -0.0126441745088    
-4.4045085907       -4.03891468048      0.0126441745088     
-4.4045085907       -4.02405071259      -0.0331028774381    
-4.4045085907       -4.02405071259      0.0331028774381     
-4.4045085907       -4.0                -0.0409174077213    
-4.4045085907       -4.0                0.0409174077213     
-4.4045085907       4.0                 -0.0409174077213    
-4.4045085907       4.0                 0.0409174077213     
-4.4045085907       4.02405071259       -0.0331028774381    
-4.4045085907       4.02405071259       0.0331028774381     
-4.4045085907       4.03891468048       -0.0126441745088    
-4.4045085907       4.03891468048       0.0126441745088     
-4.36803388596      -3.61803388596      0.0                 
-4.36803388596      3.61803388596       0.0                 
-4.34356212616      -3.61803388596      -0.00464247865602   
-4.34356212616      -3.61803388596      0.00464247865602    
-4.34356212616      3.61803388596       -0.00464247865602   
-4.34356212616      3.61803388596       0.00464247865602    
-4.30662155151      -3.90211296082      -0.0409174077213    
-4.30662155151      -3.90211296082      0.0409174077213     
-4.30662155151      3.90211296082       -0.0409174077213    
-4.30662155151      3.90211296082       0.0409174077213     
-4.27254247665      -3.61803388596      -0.0139143215492    
-4.27254247665      -3.61803388596      0.0139143215492     
-4.27254247665      3.61803388596       -0.0139143215492    
-4.27254247665      3.61803388596       0.0139143215492     
-4.25               -4.05034923553      -0.0163594372571    
-4.25               -4.05034923553      0.0163594372571     
-4.25               -4.03111743927      -0.0428295619786    
-4.25               -4.03111743927      0.0428295619786     
-4.25               -4.0                -0.0529402531683    
-4.25               -4.0                0.0529402531683     
-4.25               4.0                 -0.0529402531683    
-4.25               4.0                 0.0529402531683     
-4.25               4.03111743927       -0.0428295619786    
-4.25               4.03111743927       0.0428295619786     
-4.25               4.05034923553       -0.0163594372571    
-4.25               4.05034923553       0.0163594372571     
-4.16192674637      -3.61803388596      -0.0269051659852    
-4.16192674637      -3.61803388596      0.0269051659852     
-4.16192674637      3.61803388596       -0.0269051659852    
-4.16192674637      3.61803388596       0.0269051659852     
-4.15211296082      -3.90211296082      -0.0529402531683    
-4.15211296082      -3.90211296082      0.0529402531683     
-4.15211296082      3.90211296082       -0.0529402531683    
-4.15211296082      3.90211296082       0.0529402531683     
-4.0954914093       -4.05665874481      -0.0184096004814    
-4.0954914093       -4.05665874481      0.0184096004814     
-4.0954914093       -4.03501701355      -0.0481969565153    
-4.0954914093       -4.03501701355      0.0481969565153     
-4.0954914093       -4.0                -0.0595747157931    
-4.0954914093       -4.0                0.0595747157931     
-4.0954914093       4.0                 -0.0595747157931    
-4.0954914093       4.0                 0.0595747157931     
-4.0954914093       4.03501701355       -0.0481969565153    
-4.0954914093       4.03501701355       0.0481969565153     
-4.0954914093       4.05665874481       -0.0184096004814    
-4.0954914093       4.05665874481       0.0184096004814     
-4.02254247665      -3.61803388596      -0.0409174077213    
-4.02254247665      -3.61803388596      0.0409174077213     
-4.02254247665      3.61803388596       -0.0409174077213    
-4.02254247665      3.61803388596       0.0409174077213     
-3.99760460854      -3.90211296082      -0.0595747157931    
-3.99760460854      -3.90211296082      0.0595747157931     
-3.99760460854      3.90211296082       -0.0595747157931    
-3.99760460854      3.90211296082       0.0595747157931     
-3.95610737801      -4.05488920212      -0.0178346466273    
-3.95610737801      -4.05488920212      0.0178346466273     
-3.95610737801      -4.03392362595      -0.046691711992     
-3.95610737801      -4.03392362595      0.046691711992      
-3.95610737801      -4.0                -0.0577141307294    
-3.95610737801      -4.0                0.0577141307294     
-3.95610737801      4.0                 -0.0577141307294    
-3.95610737801      4.0                 0.0577141307294     
-3.95610737801      4.03392362595       -0.046691711992     
-3.95610737801      4.03392362595       0.046691711992      
-3.95610737801      4.05488920212       -0.0178346466273    
-3.95610737801      4.05488920212       0.0178346466273     
-3.92557048798      -3.17557048798      0.0                 
-3.92557048798      3.17557048798       0.0                 
-3.90109872818      -3.17557048798      -0.00464247865602   
-3.90109872818      -3.17557048798      0.00464247865602    
-3.90109872818      3.17557048798       -0.00464247865602   
-3.90109872818      3.17557048798       0.00464247865602    
-3.86803388596      -3.61803388596      -0.0529402531683    
-3.86803388596      -3.61803388596      0.0529402531683     
-3.86803388596      3.61803388596       -0.0529402531683    
-3.86803388596      3.61803388596       0.0529402531683     
-3.85822033882      -3.90211296082      -0.0577141307294    
-3.85822033882      -3.90211296082      0.0577141307294     
-3.85822033882      3.90211296082       -0.0577141307294    
-3.85822033882      3.90211296082       0.0577141307294     
-3.8454914093       -4.0437951088       -0.0142299029976    
-3.8454914093       -4.0437951088       0.0142299029976     
-3.8454914093       -4.02706670761      -0.037254370749     
-3.8454914093       -4.02706670761      0.037254370749      
-3.8454914093       -4.0                -0.0460489317775    
-3.8454914093       -4.0                0.0460489317775     
-3.8454914093       4.0                 -0.0460489317775    
-3.8454914093       4.0                 0.0460489317775     
-3.8454914093       4.02706670761       -0.037254370749     
-3.8454914093       4.02706670761       0.037254370749      
-3.8454914093       4.0437951088        -0.0142299029976    
-3.8454914093       4.0437951088        0.0142299029976     
-3.83007907867      -3.17557048798      -0.0139143215492    
-3.83007907867      -3.17557048798      0.0139143215492     
-3.83007907867      3.17557048798       -0.0139143215492    
-3.83007907867      3.17557048798       0.0139143215492     
-3.7744717598       -4.0246257782       -0.00800147373229   
[...]
CELL_DATA 980
SCALARS pressure_coefficient float 1
LOOKUP_TABLE default
0.130637538144      
0.0976646048424     
-0.0280293070948    
0.00982540632083    
-0.0504115884054    
-0.0556125164786    
-0.0745743622894    
-0.115098854042     
-0.114835529585     
-0.176062188404     
-0.119408660995     
-0.146497038356     
-0.139752343791     
-0.117064646885     
-0.17795964768      
-0.0989449632281    
-0.0442536961418    
0.0298514098867     
0.335832199278      
0.44371101896       
0.328323735021      
0.137055738548      
-0.00403740714102   
-0.166741343367     
-0.181923173404     
-0.235560482636     
-0.126683905525     
-0.155981997895     
-0.0752709400588    
-0.0739458939204    
-0.0810725048441    
-0.0635943716914    
-0.0111412367727    
0.00399608214655    
0.0828321877573     
0.107900607659      
0.163593408742      
0.204553083114      
0.264902080955      
0.402105385919      
0.207804165398      
0.153941741659      
0.0275687030991     
0.0652251370965     
-0.0113092411572    
0.0250832483871     
-0.0459054335298    
-0.0369613720762    
-0.0845251505532    
-0.0849758015933    
-0.131025283087     
-0.128197593429     
-0.171417317505     
-0.162517953888     
-0.160630945001     
-0.182186486782     
-0.0973395926291    
-0.0906254278909    
0.261313276088      
0.386256539499      
0.22840141933       
-0.0267940049916    
-0.166747204892     
-0.389040502297     
-0.194182079358     
-0.334906794024     
-0.184005953166     
-0.237516997565     
-0.128706283141     
-0.153912623123     
-0.0627334493552    
-0.0736291267018    
-0.00708155319975   
-0.00248471953722   
0.0344881113555     
0.0664743303135     
0.0728404144196     
0.0745467663584     
0.194472691186      
0.15993529867       
0.217812441268      
0.146553245897      
0.0477168039019     
0.083983182435      
0.00847496928121    
0.0501860959421     
-0.040899623258     
-0.0201402005873    
-0.0887638494908    
-0.0812069484126    
-0.140923797119     
-0.143063982111     
-0.188568085779     
-0.200430740008     
-0.213106574177     
-0.218280857205     
-0.168228046109     
-0.102835461951     
0.233106549202      
0.367780141231      
0.264074689069      
0.0532109583016     
-0.159288967494     
-0.320006489495     
-0.20862886215      
-0.311500877764     
-0.180692397789     
-0.233265042907     
-0.133319579286     
-0.146758113744     
-0.078941602995     
-0.0707110528071    
-0.0290419170419    
-0.00222632790639   
0.0154380600956     
0.0643617691314     
0.0566886935668     
0.0475291967045     
0.151112568175      
0.0679304700516     
0.249848254215      
0.158782345461      
0.056218661003      
0.0762107972948     
0.00214768125516    
0.0322824267863     
-0.0460632153392    
-0.031833154045     
-0.0954841826575    
-0.0891239593969    
-0.147848930954     
-0.150546647325     
-0.197193801764     
-0.206512120133     
-0.227751258974     
-0.225043743463     
-0.179484479073     
-0.127829773568     
0.23321179471       
0.336361893423      
0.282464567066      
0.142193741064      
-0.155150825372     
-0.248174376766     
-0.215087373002     
-0.263534554395     
-0.190159628737     
-0.207545205729     
-0.145182294582     
-0.135296707036     
-0.0941314975081    
-0.0664939779164    
-0.0462120879386    
-0.00503344634343   
-0.00593973574581   
0.0542957263881     
0.0483274425977     
0.0503608935396     
0.167571474556      
0.10341544843       
0.312234144546      
0.182138878813      
0.0666538420967     
0.0674281739477     
-0.0220019832783    
0.0107343005933     
-0.0585598470322    
-0.045045808372     
-0.104642279429     
-0.0985992194478    
-0.151791599169     
-0.15723856823      
-0.193785005194     
-0.210139184579     
-0.218250201241     
-0.228093983367     
-0.165620465616     
-0.139698930066     
0.246800797922      
0.317444797006      
0.273439200163      
0.176081750108      
-0.163372425417     
-0.216838445058     
-0.222301605935     
-0.241449361559     
-0.200679053084     
-0.194722106133     
-0.161543402936     
-0.129434597339     
-0.116674443324     
-0.0651555051786    
-0.0745575016247    
-0.00838048237678   
-0.0496125939439    
0.0423016489641     
0.0300910826915     
0.0571866465167     
0.207128673825      
0.153244559425      
0.344376482534      
0.176432384058      
0.0746296104064     
0.0709272880711     
-0.0354265788358    
0.0199596104611     
-0.0644481161934    
-0.0350837368027    
-0.107425273992     
-0.0885980712413    
-0.150024915891     
-0.148807209415     
-0.185337249616     
-0.203642891317     
-0.204791801878     
-0.223481414717     
-0.150319618036     
-0.138293513609     
0.255011988994      
0.311041393035      
0.256697313329      
0.173080505379      
-0.171965437914     
-0.213602404241     
-0.226227202432     
-0.236759990814     
-0.205042406033     
-0.189042825252     
-0.170667824863     
-0.122620737976     
-0.130725688322     
-0.0578249295025    
-0.0934281544602    
-0.0025497505017    
-0.0801177897376    
0.0461820354527     
0.0121698220234     
0.0525674002615     
0.216899057604      
0.131448894698      
0.34426433975       
0.153973257103      
0.0764971916008     
0.0782981770225     
-0.033345748037     
0.0435783552557     
-0.0634020723638    
-0.0142765022096    
-0.106100289858     
-0.0706059831508    
-0.149108856327     
-0.135138472861     
-0.183717297026     
-0.195509951033     
-0.20130091236      
-0.220047672007     
-0.149094249984     
-0.136609061046     
0.24953914864       
0.308992814676      
0.251103349453      
0.162041493559      
-0.17026350876      
-0.218775060056     
-0.222487609393     
-0.237568847798     
-0.201541096963     
-0.185043114271     
-0.16992634162      
-0.11479882267      
-0.130655258366     
-0.0473342415649    
-0.0944894986203    
0.0096378580292     
-0.0832495176274    
0.060389342559      
0.00274151644396    
0.0453695385247     
0.197241863428      
0.0781821884525     
0.362295140189      
0.174081785753      
0.0877806087432     
0.087354446789      
-0.0290904151367    
0.0572679606726     
-0.0568555382844    
-0.000423516872921  
-0.0996931209076    
-0.0633214383948    
-0.149846242596     
-0.132181831048     
-0.192201659867     
-0.196595119764     
-0.204631327058     
-0.22538148148      
-0.152406580757     
-0.144417254092     
0.24456224239       
0.303306519614      
0.252736227257      
0.167281818886      
-0.166916476317     
-0.212814590945     
-0.220568544478     
-0.231681860058     
-0.20655293015      
-0.179802826239     
-0.17382332745      
-0.111831637337     
-0.130499755225     
-0.043578365713     
-0.0971526432225    
0.0180758154438     
-0.0963669130685    
0.0649083824205     
-0.0164608605667    
0.0455709247051     
0.174420828306      
0.0714330303054     
0.281653975936      
0.136970793892      
0.0550833777453     
0.10692720928       
0.0110159388277     
0.112603016705      
-0.00706586273309   
0.0303089646722     
-0.0456207230011    
-0.0481096755483    
-0.103345901795     
-0.122626196654     
-0.167980064166     
-0.190506550495     
-0.211368731951     
-0.228839818783     
-0.165827120539     
-0.154110645006     
0.246069186262      
0.297804519413      
0.247401649551      
0.18590025153       
-0.181861135073     
-0.195265553282     
-0.219319454459     
-0.209058482669     
-0.182483336666     
-0.157533957927     
-0.122683144445     
-0.0929071147307    
-0.0649938214007    
-0.0242825345589    
-0.0248303774252    
0.0472042711642     
-0.0196835802623    
0.110099992365      
-0.0014349858751    
0.0520868552055     
0.0922429516822     
0.00546279513351    
0.169928753568      
0.200793747204      
0.068957849936      
0.144152242363      
0.0240327872671     
0.0296889462401     
-0.0335105876515    
-0.0240757672297    
-0.0792024783874    
-0.0645075841304    
-0.123408900678     
-0.111966001117     
-0.170018345144     
-0.156044806356     
-0.209508426359     
-0.170582523262     
-0.191763503276     
-0.141881130144     
0.255810889635      
0.294478102322      
0.323217240085      
0.257093343559      
-0.0810618153017    
-0.0646770057033    
-0.120575723045     
-0.111366152906     
-0.0950052933954    
-0.12185748115      
-0.0491446459911    
-0.103140951687     
-0.00550431776313   
-0.0743638644228    
0.0378741060343     
-0.0365963440183    
0.0983418920205     
0.0490526546928     
0.0922809802255     
0.0990715737387     
0.0540357967317     
0.0130004343643     
-0.0476361095141    
-0.163751571481     
-0.154091622519     
-0.140600069906     
-0.139149807822     
-0.140207341071     
-0.13348395708      
-0.1516038293       
-0.142749068472     
-0.169744820644     
-0.168821637223     
-0.192755316404     
-0.210988612624     
-0.209372473535     
-0.259016559869     
-0.179910197742     
-0.243498501708     
0.40509243679       
-0.0979192122747    
-0.268016327256     
-0.0950133525239    
-0.199509323895     
-0.0936137116348    
-0.178193032247     
-0.113484286319     
-0.17523192772      
-0.134811372267     
-0.183098620907     
-0.166474809304     
-0.19619402469      
-0.211241943986     
-0.203038082039     
-0.26646053924      
-0.187662357657     
-0.358454453603     
0.422893065735      
-0.119234889359     
-0.296931384233     
-0.113424016586     
-0.213904729269     
-0.104594551066     
-0.185763101698     
-0.120847272847     
-0.179313656801     
-0.13933482546      
-0.184416178459     
-0.167728761232     
-0.19433071114      
-0.207708360632     
-0.196693923567     
-0.254746801187     
-0.174475295332     
-0.343774991748     
0.478039985632      
-0.139033081946     
-0.353931403235     
-0.121136887486     
-0.230682298566     
-0.106810297047     
-0.186280941788     
-0.122191135176     
-0.175001833168     
-0.140351098139     
-0.180276559781     
-0.168324031948     
-0.194326755429     
-0.208461392258     
-0.205044359567     
-0.25738908039      
-0.197747267045     
-0.360592611399     
0.472101155182      
-0.133197001896     
-0.402448387794     
-0.178288949116     
-0.23017727561      
-0.129141004858     
-0.166016905856     
-0.126589728621     
-0.151694360034     
-0.136479981703     
-0.154635142748     
-0.158623724693     
-0.163680301649     
-0.190892692187     
-0.158752631572     
-0.219230267598     
-0.0829843705258    
-0.190682093126     
0.475910803434      
0.130635708172      
0.0976649644969     
-0.0280294534153    
0.00982318569355    
-0.0504120713755    
-0.0556130514031    
-0.0745743259735    
-0.115098800432     
-0.114835265528     
-0.17606200396      
-0.119408708175     
-0.146497255052     
-0.139752402165     
-0.117065037467     
-0.177959409906     
-0.098945350102     
-0.044253853372     
0.0298512061455     
0.335832457563      
0.443711719618      
0.328324050925      
0.137055927831      
-0.00403822226212   
-0.166742090111     
-0.181923193201     
-0.235560841577     
-0.126684068543     
-0.155982498266     
-0.0752710724349    
-0.0739465251907    
-0.0810722754996    
-0.0635947572107    
-0.0111411816441    
0.00399560741099    
0.0828314252917     
0.107898962417      
0.16359270073       
0.20455007205       
0.264903458822      
0.402103499847      
0.207803385206      
0.153941334416      
0.0275684663055     
0.065224300039      
-0.0113094032432    
0.0250818281969     
-0.0459057725025    
-0.0369625823212    
-0.0845254845568    
-0.0849766462449    
-0.131025414553     
-0.128198157021     
-0.1714176128       
-0.162518459976     
-0.160631617046     
-0.182186686079     
-0.0973402651939    
-0.090625254217     
0.261313893743      
0.386256973978      
0.228401650529      
-0.0267929399512    
-0.166747649677     
-0.389039814542     
-0.194182826095     
-0.334906505205     
-0.184006280554     
-0.2375170551       
-0.128706569395     
-0.153912919324     
-0.0627337730347    
-0.0736295730625    
-0.00708178028479   
-0.00248522135814   
0.0344882195576     
0.0664741769875     
0.0728408610898     
0.0745477656906     
0.194474192714      
0.159938927468      
0.21781135078       
0.14655300372       
0.047716439361      
0.0839828821395     
0.00847530173839    
0.0501855525126     
-0.0408996356602    
-0.0201408174675    
-0.0887637978397    
-0.0812075074115    
-0.1409237766       
-0.143064255784     
-0.188568272478     
-0.200430976942     
-0.213106936539     
-0.218281052131     
-0.168228482576     
-0.102835905072     
0.233106506625      
0.3677801103        
0.264075251803      
0.0532124135272     
-0.159289655946     
-0.320005967329     
-0.208629446461     
-0.31150046371      
-0.180692936928     
-0.233264992241     
-0.133319947851     
-0.146758420446     
-0.0789417466685    
-0.0707112722449    
-0.0290417101366    
-0.0022264751955    
0.0154385310607     
0.0643614615274     
0.056689045026      
0.0475301296864     
0.151112410903      
0.0679328595042     
0.249847164113      
0.158781789821      
0.0562180461774     
0.0762101999293     
0.00214750498829    
0.0322817522193     
-0.0460632069119    
-0.0318337896841    
-0.0954841982992    
-0.0891244674524    
-0.147848800954     
-0.150546817825     
-0.19719390998      
-0.206512179664     
-0.227751478897     
-0.225043729779     
-0.179484515864     
-0.127829935182     
0.23321277907       
0.336361967846      
0.282464446167      
0.142194108369      
-0.155151013494     
-0.248173904641     
-0.215087422414     
-0.263534140351     
-0.190160039543     
-0.207545255608     
-0.14518268458      
-0.135297038048     
-0.0941315368476    
-0.066494206865     
-0.046212071236     
-0.00503365277144   
-0.00593958081716   
0.0542951163881     
0.0483280576096     
0.0503619411488     
0.167569767871      
0.10341670952       
0.312234093327      
0.182139259591      
0.0666540642762     
0.0674281713839     
-0.0220017059287    
0.0107331836438     
-0.0585601676084    
-0.0450464694083    
-0.104642345109     
-0.098599769207     
-0.15179153063      
-0.157238704434     
-0.193785076162     
-0.210139372841     
-0.218250273618     
-0.228094158435     
-0.16561992609      
-0.139698681844     
0.246801353524      
0.317444864813      
0.273438992497      
0.176082179293      
-0.163371964612     
-0.216837207641     
-0.222301786814     
-0.241449101452     
-0.200679386393     
-0.194722160258     
-0.161543862612     
-0.129434986608     
-0.116674581417     
-0.0651556835782    
-0.0745573241085    
-0.00838066317975   
-0.049612862119     
0.0423014609822     
0.0300919777704     
0.0571872933372     
0.207129664404      
0.153246981444      
0.344376838671      
0.176432479292      
0.0746267000368     
0.0709254362177     
-0.0354297721187    
0.0199582079132     
-0.064448491078     
-0.0350843307456    
-0.107425400432     
-0.0885984152971    
-0.150024825502     
-0.148807212443     
-0.18533736167      
-0.203642933837     
-0.204791656017     
-0.22348170309      
-0.150319861231     
-0.138293555234     
0.255011723904      
0.31104162308       
0.256697342563      
0.173080545348      
-0.171965173186     
-0.213602304636     
-0.226227753431     
-0.236759617721     
-0.205042768704     
-0.189042924564     
-0.170668510997     
-0.122621195046     
-0.130726721077     
-0.0578252755593    
-0.0934285877712    
-0.00254988893007   
-0.0801190634816    
0.0461821442745     
0.0121665646828     
0.0525676915282     
0.216901237031      
0.131450846512      
0.344267511315      
0.153972381468      
0.0764960127285     
0.0782972233529     
-0.0333461752976    
0.0435797143434     
-0.0634016549124    
-0.0142757263446    
-0.106099776569     
-0.0706055042655    
-0.14910804299      
-0.135137908918     
-0.183716579507     
-0.195509821364     
-0.201301030396     
-0.220047559661     
-0.149092320276     
-0.13660990854      
0.249537033802      
0.308991983868      
0.251101523291      
0.162038276488      
-0.170264159892     
-0.218773994002     
-0.22248760281      
-0.237568968406     
-0.201541123113     
-0.185043140188     
-0.169926802815     
-0.114799044106     
-0.130654920804     
-0.0473337504617    
-0.0944898761361    
0.00963815979665    
-0.0832484943051    
0.0603909525905     
0.0027414237437     
0.0453709960737     
0.197235849788      
0.0781811981354     
0.362295106549      
0.174081710542      
0.08778100574       
0.0873550442043     
-0.0290901349789    
0.0572677988113     
-0.0568563648294    
-0.000424440003352  
-0.0996935429725    
-0.0633214396749    
-0.149845612289     
-0.132181498853     
-0.192200809524     
-0.196594792311     
-0.204631578593     
-0.225381725937     
-0.152407124597     
-0.144417318105     
0.244564477311      
0.303307680513      
0.252734696471      
0.16727895149       
-0.166915553466     
-0.212815455095     
-0.220568352882     
-0.23168217093      
-0.206553763472     
-0.179803446986     
-0.173824573723     
-0.111832264977     
-0.130500995073     
-0.0435787718734    
-0.0971533138985    
0.0180761915855     
-0.0963678224308    
0.0649074136166     
-0.0164590597565    
0.0455719035533     
0.174425042332      
0.0714363276464     
0.281648941054      
0.13696617958       
0.0550814398748     
0.106930135931      
0.0110154520581     
0.112603206066      
-0.00706653286694   
0.0303089597955     
-0.0456206940931    
-0.0481092316901    
-0.103345155008     
-0.122624910606     
-0.167978471592     
-0.190505232563     
-0.211368903428     
-0.228839895288     
-0.165825998111     
-0.154110076136     
0.246071599664      
0.297805765723      
0.247399811673      
0.185897028865      
-0.181862087588     
-0.195266796001     
-0.219319527124     
-0.209058483981     
-0.182484203451     
-0.157534513002     
-0.122684076732     
-0.0929081533317    
-0.0649938038085    
-0.0242820547404    
-0.0248284573841    
0.0472058925743     
-0.0196804286028    
0.110101114702      
-0.00143211481757   
0.0520862145075     
0.0922471180074     
0.00546556006096    
0.169925421752      
0.200792303222      
0.0689561254545     
0.14415109834       
0.024031639079      
0.0296876714058     
-0.0335104379607    
-0.024076829992     
-0.0792021842756    
-0.0645081402882    
-0.123408716237     
-0.111965863884     
-0.170017272894     
-0.156044028113     
-0.209507478537     
-0.170581014877     
-0.19175796747      
-0.141878321993     
0.255812105819      
0.294478973211      
0.323216217825      
0.25709177794       
-0.08106263801      
-0.0646790839564    
-0.120575122454     
-0.111365918761     
-0.0950056136841    
-0.121858381669     
-0.0491441606841    
-0.103141385918     
-0.0055046950511    
-0.0743647542473    
0.0378727225589     
-0.0365968767544    
0.0983401448832     
0.0490514918974     
0.0922825457835     
0.099074347104      
0.0540449343447     
0.0130098916466     
-0.047632836078     
-0.163746360195     
-0.154089960124     
-0.14059914905      
-0.139149554569     
-0.140203847568     
-0.133483418        
-0.151604002895     
-0.142748755722     
-0.169744547212     
-0.168821274601     
-0.192752222737     
-0.210988172785     
-0.209373242625     
-0.259015644842     
-0.179915384723     
-0.243497496547     
0.405082435684      
-0.09792175468      
-0.267984712835     
-0.0950110174641    
-0.19950341642      
-0.09361257463      
-0.178186618011     
-0.113483595926     
-0.175227702295     
-0.134811882923     
-0.183097838792     
-0.166475289572     
-0.196192006029     
-0.211241367913     
-0.203030571961     
-0.266461360837     
-0.187661791606     
-0.358454024526     
0.422892180577      
-0.119234487943     
-0.296919041661     
-0.113423022281     
-0.213904063862     
-0.104594046415     
-0.185761768297     
-0.120846084202     
-0.179312190278     
-0.139335012673     
-0.18441505712      
-0.167729027517     
-0.194329884182     
-0.207707056993     
-0.196693081721     
-0.254745805675     
-0.174480450903     
-0.343778124146     
0.478033389242      
-0.139024233776     
-0.353905323067     
-0.121134566741     
-0.230680427434     