# vtk DataFile Version 3.0
PyPan results file. Generated by PyPan, USU AeroLab (c) 2020.
ASCII
DATASET POLYDATA
POINTS 492 float
-4.75               -4.0                0.0                 
-4.75               4.0                 0.0                 
-4.7255282402       -4.00441503525      -0.00143460487016   
-4.7255282402       -4.00441503525      0.00143460487016    
-4.7255282402       -4.00272893906      -0.00375584419817   
-4.7255282402       -4.00272893906      0.00375584419817    
-4.7255282402       -4.0                -0.00464247865602   
-4.7255282402       -4.0                0.00464247865602    
-4.7255282402       4.0                 -0.00464247865602   
-4.7255282402       4.0                 0.00464247865602    
-4.7255282402       4.00272893906       -0.00375584419817   
-4.7255282402       4.00272893906       0.00375584419817    
-4.7255282402       4.00441503525       -0.00143460487016   
-4.7255282402       4.00441503525       0.00143460487016    
-4.6545085907       -4.01323318481      -0.00429976172745   
-4.6545085907       -4.01323318481      0.00429976172745    
-4.6545085907       -4.00817871094      -0.0112569229677    
-4.6545085907       -4.00817871094      0.0112569229677     
-4.6545085907       -4.0                -0.0139143215492    
-4.6545085907       -4.0                0.0139143215492     
-4.6545085907       4.0                 -0.0139143215492    
-4.6545085907       4.0                 0.0139143215492     
-4.6545085907       4.00817871094       -0.0112569229677    
-4.6545085907       4.00817871094       0.0112569229677     
-4.6545085907       4.01323318481       -0.00429976172745   
-4.6545085907       4.01323318481       0.00429976172745    
-4.65211296082      -3.90211296082      0.0                 
-4.65211296082      3.90211296082       0.0                 
-4.62764120102      -3.90211296082      -0.00464247865602   
-4.62764120102      -3.90211296082      0.00464247865602    
-4.62764120102      3.90211296082       -0.00464247865602   
-4.62764120102      3.90211296082       0.00464247865602    
-4.55662155151      -3.90211296082      -0.0139143215492    
-4.55662155151      -3.90211296082      0.0139143215492     
-4.55662155151      3.90211296082       -0.0139143215492    
-4.55662155151      3.90211296082       0.0139143215492     
-4.54389286041      -4.02558851242      -0.00831415317953   
-4.54389286041      -4.02558851242      0.00831415317953    
-4.54389286041      -4.01581430435      -0.0217667371035    
-4.54389286041      -4.01581430435      0.0217667371035     
-4.54389286041      -4.0                -0.0269051659852    
-4.54389286041      -4.0                0.0269051659852     
-4.54389286041      4.0                 -0.0269051659852    
-4.54389286041      4.0                 0.0269051659852     
-4.54389286041      4.01581430435       -0.0217667371035    
-4.54389286041      4.01581430435       0.0217667371035     
-4.54389286041      4.02558851242       -0.00831415317953   
-4.54389286041      4.02558851242       0.00831415317953    
-4.44600582123      -3.90211296082      -0.0269051659852    
-4.44600582123      -3.90211296082      0.0269051659852     
-4.44600582123      3.90211296082       -0.0269051659852    
-4.44600582123      3.90211296082       0.0269051659852     
-4.4045085907       -4.03891468048      -0.0126441745088    
-4.4045085907       -4.03891468048      0.0126441745088     
-4.4045085907       -4.02405071259      -0.0331028774381    
-4.4045085907       -4.02405071259      0.0331028774381     
-4.4045085907       -4.0                -0.0409174077213    
-4.4045085907       -4.0                0.0409174077213     
-4.4045085907       4.0                 -0.0409174077213    
-4.4045085907       4.0                 0.0409174077213     
-4.4045085907       4.02405071259       -0.0331028774381    
-4.4045085907       4.02405071259       0.0331028774381     
-4.4045085907       4.03891468048       -0.0126441745088    
-4.4045085907       4.03891468048       0.0126441745088     
-4.36803388596      -3.61803388596      0.0                 
-4.36803388596      3.61803388596       0.0                 
-4.34356212616      -3.61803388596      -0.00464247865602   
-4.34356212616      -3.61803388596      0.00464247865602    
-4.34356212616      3.61803388596       -0.00464247865602   
-4.34356212616      3.61803388596       0.00464247865602    
-4.30662155151      -3.90211296082      -0.0409174077213    
-4.30662155151      -3.90211296082      0.0409174077213     
-4.30662155151      3.90211296082       -0.0409174077213    
-4.30662155151      3.90211296082       0.0409174077213     
-4.27254247665      -3.61803388596      -0.0139143215492    
-4.27254247665      -3.61803388596      0.0139143215492     
-4.27254247665      3.61803388596       -0.0139143215492    
-4.27254247665      3.61803388596       0.0139143215492     
-4.25               -4.05034923553      -0.0163594372571    
-4.25               -4.05034923553      0.0163594372571     
-4.25               -4.03111743927      -0.0428295619786    
-4.25               -4.03111743927      0.0428295619786     
-4.25               -4.0                -0.0529402531683    
-4.25               -4.0                0.0529402531683     
-4.25               4.0                 -0.0529402531683    
-4.25               4.0                 0.0529402531683     
-4.25               4.03111743927       -0.0428295619786    
-4.25               4.03111743927       0.0428295619786     
-4.25               4.05034923553       -0.0163594372571    
-4.25               4.05034923553       0.0163594372571     
-4.16192674637      -3.61803388596      -0.0269051659852    
-4.16192674637      -3.61803388596      0.0269051659852     
-4.16192674637      3.61803388596       -0.0269051659852    
-4.16192674637      3.61803388596       0.0269051659852     
-4.15211296082      -3.90211296082      -0.0529402531683    
-4.15211296082      -3.90211296082      0.0529402531683     
-4.15211296082      3.90211296082       -0.0529402531683    
-4.15211296082      3.90211296082       0.0529402531683     
-4.0954914093       -4.05665874481      -0.0184096004814    
-4.0954914093       -4.05665874481      0.0184096004814     
-4.0954914093       -4.03501701355      -0.0481969565153    
-4.0954914093       -4.03501701355      0.0481969565153     
-4.0954914093       -4.0                -0.0595747157931    
-4.0954914093       -4.0                0.0595747157931     
-4.0954914093       4.0                 -0.0595747157931    
-4.0954914093       4.0                 0.0595747157931     
-4.0954914093       4.03501701355       -0.0481969565153    
-4.0954914093       4.03501701355       0.0481969565153     
-4.0954914093       4.05665874481       -0.0184096004814    
-4.0954914093       4.05665874481       0.0184096004814     
-4.02254247665      -3.61803388596      -0.0409174077213    
-4.02254247665      -3.61803388596      0.0409174077213     
-4.02254247665      3.61803388596       -0.0409174077213    
-4.02254247665      3.61803388596       0.0409174077213     
-3.99760460854      -3.90211296082      -0.0595747157931    
-3.99760460854      -3.90211296082      0.0595747157931     
-3.99760460854      3.90211296082       -0.0595747157931    
-3.99760460854      3.90211296082       0.0595747157931     
-3.95610737801      -4.05488920212      -0.0178346466273    
-3.95610737801      -4.05488920212      0.0178346466273     
-3.95610737801      -4.03392362595      -0.046691711992     
-3.95610737801      -4.03392362595      0.046691711992      
-3.95610737801      -4.0                -0.0577141307294    
-3.95610737801      -4.0                0.0577141307294     
-3.95610737801      4.0                 -0.0577141307294    
-3.95610737801      4.0                 0.0577141307294     
-3.95610737801      4.03392362595       -0.046691711992     
-3.95610737801      4.03392362595       0.046691711992      
-3.95610737801      4.05488920212       -0.0178346466273    
-3.95610737801      4.05488920212       0.0178346466273     
-3.92557048798      -3.17557048798      0.0                 
-3.92557048798      3.17557048798       0.0                 
-3.90109872818      -3.17557048798      -0.00464247865602   
-3.90109872818      -3.17557048798      0.00464247865602    
-3.90109872818      3.17557048798       -0.00464247865602   
-3.90109872818      3.17557048798       0.00464247865602    
-3.86803388596      -3.61803388596      -0.0529402531683    
-3.86803388596      -3.61803388596      0.0529402531683     
-3.86803388596      3.61803388596       -0.0529402531683    
-3.86803388596      3.61803388596       0.0529402531683     
-3.85822033882      -3.90211296082      -0.0577141307294    
-3.85822033882      -3.90211296082      0.0577141307294     
-3.85822033882      3.90211296082       -0.0577141307294    
-3.85822033882      3.90211296082       0.0577141307294     
-3.8454914093       -4.0437951088       -0.0142299029976    
-3.8454914093       -4.0437951088       0.0142299029976     
-3.8454914093       -4.02706670761      -0.037254370749     
-3.8454914093       -4.02706670761      0.037254370749      
-3.8454914093       -4.0                -0.0460489317775    
-3.8454914093       -4.0                0.0460489317775     
-3.8454914093       4.0                 -0.0460489317775    
-3.8454914093       4.0                 0.0460489317775     
-3.8454914093       4.02706670761       -0.037254370749     
-3.8454914093       4.02706670761       0.037254370749      
-3.8454914093       4.0437951088        -0.0142299029976    
-3.8454914093       4.0437951088        0.0142299029976     
-3.83007907867      -3.17557048798      -0.0139143215492    
-3.83007907867      -3.17557048798      0.0139143215492     
-3.83007907867      3.17557048798       -0.0139143215492    
-3.83007907867      3.17557048798       0.0139143215492     
-3.7744717598       -4.0246257782       -0.00800147373229   
[...]
CELL_DATA 980
SCALARS pressure_coefficient float 1
LOOKUP_TABLE default
0.351420784279      
0.338608011908      
0.0956638534986     
0.121933454551      
0.0213851631393     
-0.00604919353939   
-0.0413772320872    
-0.0994102199635    
-0.108614899894     
-0.183278063278     
-0.133834063694     
-0.169182953401     
-0.17546395474      
-0.158781285018     
-0.243737636702     
-0.166644948872     
-0.15190794257      
-0.0669847800471    
0.218683444842      
0.371246553425      
0.424283739613      
0.262587953865      
0.099347084345      
-0.0647398468527    
-0.112553608438     
-0.167925748861     
-0.087264839729     
-0.116520339252     
-0.0575599557711    
-0.0576795929931    
-0.0813513683089    
-0.0653640218171    
-0.0344141277921    
-0.0222296618222    
0.0228286255781     
0.0364510880146     
0.0251369027145     
0.019303808706      
-0.0266926058993    
0.00237397332229    
0.370779123262      
0.32805654381       
0.12669721227       
0.163713842651      
0.0511466351056     
0.0863113592834     
-0.00769421936805   
-0.00458309346005   
-0.066736930796     
-0.0765873555592    
-0.134738631086     
-0.141983905783     
-0.20084548207      
-0.200426033417     
-0.223981535756     
-0.251563414561     
-0.208807767629     
-0.205668615021     
0.12440801091       
0.29156850642       
0.346394815025      
0.1387936464        
-0.0477813374943    
-0.265438523502     
-0.124516346001     
-0.263705793485     
-0.147149677559     
-0.19975003412      
-0.117923807392     
-0.141840265663     
-0.0748689950154    
-0.0860357358146    
-0.0422330652093    
-0.0417418531127    
-0.0293005183208    
-0.00390634096894   
-0.0350360979665    
-0.0552781060987    
-0.0289940759565    
-0.171225132107     
0.375281925697      
0.308375158071      
0.141428270575      
0.169764181476      
0.0680779132714     
0.106867103211      
-0.00326560564636   
0.0156093890589     
-0.0690968125106    
-0.064992851886     
-0.140786969318     
-0.148380097775     
-0.214008713209     
-0.2324488115       
-0.274933905194     
-0.287638454695     
-0.286004621489     
-0.22609178894      
0.0793947509294     
0.253302746039      
0.377805196092      
0.216686312111      
-0.0404479317316    
-0.19713970396      
-0.142851026706     
-0.245765476755     
-0.149936782218     
-0.204180197688     
-0.127133971787     
-0.143527346248     
-0.0926670434967    
-0.0878918299758    
-0.0622883314607    
-0.0389529251303    
-0.0433874717051    
0.0025601091209     
-0.0427150087789    
-0.0680581593693    
-0.0675716826883    
-0.250991733003     
0.396105886186      
0.315547248134      
0.148762724705      
0.160330421936      
0.0612153540898     
0.087234008304      
-0.00914361640574   
0.00250793324757    
-0.0762836584153    
-0.0726215237501    
-0.147727537938     
-0.153774367189     
-0.222040738961     
-0.235635414267     
-0.288361585919     
-0.292094656        
-0.296794967838     
-0.252903707499     
0.0780851738853     
0.205556166948      
0.393299571688      
0.288142264883      
-0.0372433869595    
-0.130956806716     
-0.149854089114     
-0.201136505294     
-0.160144840893     
-0.180405391229     
-0.139582746079     
-0.132777982787     
-0.108205743245     
-0.083306432376     
-0.0797422581601    
-0.0406968305632    
-0.0655521562951    
-0.00649589389388   
-0.0498590440554    
-0.0598215814826    
-0.0411187487864    
-0.189208335011     
0.427408032551      
0.329926997394      
0.157240464529      
0.150770158343      
0.0369303218715     
0.0651353903349     
-0.0221721413951    
-0.0114658050645    
-0.0859336307322    
-0.0826200298465    
-0.151887970519     
-0.160588508517     
-0.218061805636     
-0.238849334111     
-0.277096842145     
-0.294100092166     
-0.27972894434      
-0.264041839798     
0.0983608447695     
0.182118209689      
0.384911271176      
0.311654070411      
-0.0461375597148    
-0.103162664497     
-0.157402565971     
-0.180381602137     
-0.170904441313     
-0.167910064279     
-0.15658545371      
-0.126736698232     
-0.131864576646     
-0.081594928942     
-0.109821917932     
-0.0436818021229    
-0.112969968269     
-0.0187967379979    
-0.0693525248642    
-0.0496561169581    
0.0162437699973     
-0.113686509527     
0.432556764343      
0.320001887509      
0.162179217533      
0.151950698012      
0.0229408580905     
0.0733465485517     
-0.0284973108165    
-0.0017085476026    
-0.0888540650862    
-0.0723082404534    
-0.149872570747     
-0.151545398592     
-0.208718946999     
-0.231479652578     
-0.261777963936     
-0.288177677325     
-0.260997096712     
-0.260586985142     
0.113384824206      
0.177414400757      
0.368918036439      
0.306040972045      
-0.0557137745446    
-0.101710919049     
-0.161893614138     
-0.176575534577     
-0.175467128412     
-0.162508582693     
-0.16596070519      
-0.119696157629     
-0.146395594979     
-0.073593681255     
-0.129456443604     
-0.0367660272478    
-0.145253748633     
-0.0131169654675    
-0.0878162249462    
-0.0528934681079    
0.0351068867894     
-0.138617908857     
0.420713743274      
0.295946862174      
0.160231445465      
0.156204605188      
0.0244568438932     
0.0958874475694     
-0.0274416529162    
0.0192824439045     
-0.0870576820914    
-0.053571792584     
-0.148252939085     
-0.136949419847     
-0.20638466479      
-0.222391356057     
-0.257484124351     
-0.283724344939     
-0.258470612183     
-0.257264731581     
0.109429193403      
0.177651571492      
0.361736323649      
0.295215113929      
-0.0555499969352    
-0.107948630043     
-0.158954995677     
-0.17818127064      
-0.172201551243     
-0.158908380645     
-0.165043494828     
-0.111774533279     
-0.14575167226      
-0.0623915711479    
-0.129332361638     
-0.0230465402787    
-0.14590764474      
0.00434873764724    
-0.094954915687     
-0.0590597277274    
0.0147440812272     
-0.207749686672     
0.41418959198       
0.298363600621      
0.162703031078      
0.160266161771      
0.0276962170799     
0.108982326834      
-0.0204264613189    
0.0336642419756     
-0.0788792276266    
-0.0453747520951    
-0.146682415392     
-0.133167524845     
-0.212890917098     
-0.222808980884     
-0.259471507762     
-0.288540607955     
-0.260158111826     
-0.264611722943     
0.106192689273      
0.171508458933      
0.360870347268      
0.297903885195      
-0.0550341406822    
-0.103874002643     
-0.159204366233     
-0.173673289441     
-0.178811911519     
-0.154830964459     
-0.169998553324     
-0.109742123499     
-0.145626787321     
-0.0591071205505    
-0.130336646497     
-0.0139829084744    
-0.154303019505     
0.0113414842823     
-0.108092866798     
-0.0552168656145    
-0.00197409218033   
-0.206623071308     
0.360365788528      
0.253360456073      
0.118303270507      
0.169729858472      
0.058829256352      
0.159287837498      
0.025797941342      
0.0634516981794     
-0.0244588042099    
-0.0291683630077    
-0.0964731794107    
-0.12128434517      
-0.182037208716     
-0.213720750952     
-0.259066007169     
-0.288969600049     
-0.267721851917     
-0.271657685431     
0.115310414182      
0.166673980656      
0.353778296507      
0.309574991757      
-0.0761178862632    
-0.0917094872504    
-0.164791537514     
-0.155818157603     
-0.161758360605     
-0.137020949046     
-0.124759766242     
-0.0950468555517    
-0.0827831104552    
-0.0433309727432    
-0.0558392406169    
0.0134762858613     
-0.0676960919083    
0.0595075074221     
-0.0763325935726    
-0.0392292038503    
-0.0660853054203    
-0.252023558116     
0.240436195069      
0.281800716123      
0.115732459844      
0.198386305731      
0.062580767896      
0.0722419925162     
-0.00461189179716   
0.00515636800135    
-0.0602230018265    
-0.0465803519819    
-0.115867001408     
-0.107549724427     
-0.178667160912     
-0.171846685459     
-0.244746112649     
-0.219149889154     
-0.282188091272     
-0.249575467589     
0.136865962735      
0.165813292377      
0.408238686508      
0.363817255433      
0.0083170199517     
0.0218776154349     
-0.0796925002318    
-0.0701626347693    
-0.0815385265301    
-0.107806842189     
-0.0523076221058    
-0.107038816099     
-0.019767662603     
-0.0916436708717    
0.0143675392919     
-0.0666674766541    
0.0626461892846     
0.000771050042583   
0.0347154037767     
0.0166986348829     
-0.0547431284739    
-0.172858755765     
-0.0368052484988    
-0.154868626042     
-0.154500729894     
-0.125831909767     
-0.137001161659     
-0.125432307738     
-0.130961083305     
-0.141170094991     
-0.14211691716      
-0.165754884154     
-0.172723003533     
-0.198207996214     
-0.223976284646     
-0.230937759672     
-0.291364999017     
-0.239511584991     
-0.330505767323     
0.259774374337      
-0.144535889143     
-0.336792700398     
-0.091603533573     
-0.23553375483      
-0.0961929802908    
-0.199456496644     
-0.118048096098     
-0.18870859636      
-0.141145874566     
-0.193337583899     
-0.175442419659     
-0.206823935825     
-0.224997256847     
-0.21797816359      
-0.289301415107     
-0.214631375063     
-0.411020981806     
0.31264304002       
-0.20138294041      
-0.407115283749     
-0.127137725868     
-0.275706601819     
-0.122214792343     
-0.225486154495     
-0.138357381974     
-0.206260522966     
-0.15633250146      
-0.203487843445     
-0.184526821569     
-0.208405700318     
-0.225570926919     
-0.208094368082     
-0.276695006633     
-0.186041132979     
-0.384979647609     
0.450622440605      
-0.226616658895     
-0.502652195478     
-0.154926713408     
-0.314125364665     
-0.140064769523     
-0.24082769228      
-0.151988503261     
-0.212688444953     
-0.166771217128     
-0.206312697621     
-0.191388068107     
-0.210769941346     
-0.228568124802     
-0.212399595012     
-0.27580475452      
-0.192514524598     
-0.380966874904     
0.536070292435      
-0.189901934422     
-0.546194180219     
-0.193543702606     
-0.303848323033     
-0.142039091211     
-0.210261597325     
-0.138854338997     
-0.17853926484      
-0.146520406592     
-0.167701527147     
-0.163363434496     
-0.162172102791     
-0.185351836394     
-0.137248796326     
-0.194073014733     
-0.0236613475816    
-0.122256709905     
0.595336749315      
0.351420261121      
0.338608490643      
0.0956637490618     
0.121931755076      
0.0213847432265     
-0.0060496340956    
-0.0413772151251    
-0.0994101761651    
-0.108614683247     
-0.183277912075     
-0.133834096527     
-0.169183127623     
-0.175464013171     
-0.158781617271     
-0.243737442475     
-0.166645283932     
-0.151908045751     
-0.0669849906832    
0.218683617734      
0.371247127514      
0.424284079574      
0.262588189033      
0.0993464458335     
-0.0647404146455    
-0.112553631678     
-0.167926031133     
-0.0872649760323    
-0.116520740373     
-0.0575600762543    
-0.0576801049733    
-0.0813511923784    
-0.0653643350993    
-0.0344140783106    
-0.0222300382432    
0.022827997351      
0.0364497461237     
0.0251363009901     
0.0193011677241     
-0.0266907643183    
0.00237109847057    
0.370778959464      
0.328056512154      
0.12669710815       
0.1637133344        
0.0511465345558     
0.0863102910807     
-0.00769449198557   
-0.00458405716478   
-0.0667371958999    
-0.0765880313728    
-0.134738709225     
-0.141984355144     
-0.200845727026     
-0.200426465154     
-0.223982111925     
-0.251563603324     
-0.208808421442     
-0.205668478019     
0.124408623884      
0.291568850634      
0.346395134451      
0.138794448221      
-0.0477816558057    
-0.265437986611     
-0.124516951965     
-0.26370555747      
-0.147149954263     
-0.199750083345     
-0.117924058748     
-0.141840529531     
-0.0748692724061    
-0.0860361110936    
-0.0422332606932    
-0.0417422700659    
-0.0293004286265    
-0.00390645577094   
-0.0350358045955    
-0.0552772814519    
-0.0289922365324    
-0.171220894083     
0.375281449711      
0.308375051519      
0.141428053569      
0.169764109492      
0.0680782700784     
0.106866813633      
-0.0032656106131    
0.0156089210225     
-0.0690967483013    
-0.0649933089195    
-0.140786918154     
-0.148380291096     
-0.214008829004     
-0.232449001211     
-0.274934182547     
-0.287638641843     
-0.286005084874     
-0.226092275397     
0.0793944041249     
0.253302571406      
0.37780564709       
0.216687309719      
-0.0404484365608    
-0.197139345906     
-0.142851481148     
-0.245765170205     
-0.149937227746     
-0.204180177297     
-0.127134298782     
-0.143527635229     
-0.0926671738592    
-0.087892018986     
-0.0622881427331    
-0.0389530454367    
-0.0433870103628    
0.00255982854859    
-0.0427148450051    
-0.0680572978596    
-0.0675721974458    
-0.250989275413     
0.396105362347      
0.315546801507      
0.148762232437      
0.160330011343      
0.0612152180969     
0.0872335681328     
-0.00914359365919   
0.00250742449757    
-0.0762836661495    
-0.0726219430116    
-0.147727389782     
-0.15377447431      
-0.222040827121     
-0.235635430736     
-0.288361805482     
-0.292094605406     
-0.296795034798     
-0.252903835069     
0.078086424481      
0.205556312776      
0.393299687138      
0.288142507526      
-0.0372435071212    
-0.130956484536     
-0.149854113901     
-0.201136189457     
-0.160145203426     
-0.180405474185     
-0.139583102427     
-0.132778309012     
-0.108205767581     
-0.0833066407531    
-0.0797422483965    
-0.0406970182202    
-0.0655519428554    
-0.0064964553476    
-0.0498584492992    
-0.0598205853155    
-0.041121761251     
-0.189207447859     
0.427408134377      
0.329927217983      
0.157240705787      
0.150770245473      
0.0369305903873     
0.0651343793669     
-0.0221724810742    
-0.0114664037945    
-0.0859337211152    
-0.0826205460114    
-0.151887910327     
-0.160588617381     
-0.218061880261     
-0.238849507664     
-0.27709693773      
-0.294100265176     
-0.279728376431     
-0.264041536037     
0.0983614700979     
0.182118271588      
0.384911187639      
0.311654394704      
-0.0461372432433    
-0.103161612355     
-0.157402749525     
-0.180381368599     
-0.170904773534     
-0.16791011859      
-0.156585930943     
-0.126737073283     
-0.131864745659     
-0.0815950938315    
-0.109821781619     
-0.0436819883736    
-0.112970404485     
-0.018796946348     
-0.0693515655546    
-0.0496554615379    
0.01624504442       
-0.113683486457     
0.432556870163      
0.320001781853      
0.162176712729      
0.151949074691      
0.0229377557172     
0.0733452483466     
-0.0284977321974    
-0.00170910332348   
-0.0888542298882    
-0.0723085636389    
-0.149872489565     
-0.151545381007     
-0.208719041107     
-0.231479681527     
-0.261777781419     
-0.288177988934     
-0.260997431207     
-0.260587056157     
0.113384482446      
0.17741460363       
0.368917985276      
0.306040958394      
-0.0557136353472    
-0.101710857512     
-0.161894166688     
-0.176575194852     
-0.17546748972      
-0.162508672165     
-0.165961409563     
-0.119696594318     
-0.146396714905     
-0.0735940100848    
-0.129456958309     
-0.0367661360686    
-0.145255291815     
-0.0131168531012    
-0.087820064037     
-0.0528931723895    
0.0351099256478     
-0.138615577809     
0.420714567256      
0.295945940421      
0.160230378689      
0.156203605088      
0.0244564421971     
0.0958888705529     
-0.0274412653012    
0.0192832580239     
-0.0870572035817    
-0.0535713000785    
-0.148252145296     
-0.136948828753     
-0.206383963838     
-0.222391212209     
-0.25748431795      
-0.283724248546     
-0.258468550913     
-0.257265850697     
0.109425504126      
0.177649598073      
0.361735312646      
0.295212954844      
-0.0555505414738    
-0.107947829954     
-0.158955029679     
-0.178181443818     
-0.172201577017     
-0.158908416442     
-0.165043939419     
-0.111774734685     
-0.145751322421     
-0.0623910374503    
-0.12933275859      
-0.0230461686502    
-0.145906492787     
0.00435052711779    
-0.0949551902237    
-0.0590582843482    
0.0147348663647     
-0.207752078089     
0.414189311114      
0.298363709947      
0.162703357136      
0.160266734192      
0.0276963668183     
0.108982219147      
-0.0204273251961    
0.033663321883      
-0.0788796556478    
-0.0453747787011    
-0.146681792081     
-0.133167218145     
-0.212890037923     
-0.222808652071     
-0.259471770534     
-0.288540871966     
-0.260158728948     
-0.264611891078     
0.106195994354      
0.171510521072      
0.360869347541      
0.297901863166      
-0.0550334627657    
-0.103874784864     
-0.159204238192     
-0.173673613333     
-0.178812740061     
-0.154831580296     
-0.169999824104     
-0.109742752766     
-0.145628092654     
-0.0591075344398    
-0.130337403125     
-0.0139825346811    
-0.154304026261     
0.0113404892541     
-0.108090911195     
-0.0552157516322    
-0.00196822196256   
-0.206618098799     
0.360362632284      
0.253357250959      
0.118301883315      
0.169732979932      
0.0588289026153     
0.159288042456      
0.0257971908949     
0.0634516698784     
-0.0244588114574    
-0.0291678872202    
-0.0964724191368    
-0.121283059078     
-0.182035595853     
-0.213719418034     
-0.259066180676     
-0.288969681451     
-0.267720650425     
-0.271657000573     
0.115313846332      
0.166676123995      
0.353777173204      
0.309572819465      
-0.0761186468777    
-0.0917105283352    
-0.164791484939     
-0.1558181418       
-0.161759173772     
-0.137021495194     
-0.124760733927     
-0.0950479010842    
-0.0827832429281    
-0.0433305303664    
-0.055837462463     
0.0134779060405     
-0.0676930883248    
0.059508662313      
-0.0763297088473    
-0.0392297436912    
-0.0660797475655    
-0.252019575938     
0.240434298501      
0.281800358786      
0.115731108885      
0.198385916853      
0.0625798430511     
0.0722409464512     
-0.00461183521004   
0.0051553328161     
-0.0602228915652    
-0.0465808577569    
-0.115866817411     
-0.107549583341     
-0.178665986889     
-0.171845943351     
-0.244745133492     
-0.21914833115      
-0.282182194108     
-0.249572388294     
0.136867396564      
0.165814269049      
0.408238124129      
0.363816135074      
0.00831650915929    
0.021875803404      
-0.0796917118886    
-0.0701623636837    
-0.0815389430792    
-0.10780781635      
-0.0523072881148    
-0.107039289223     
-0.0197679506442    
-0.0916444775335    
0.0143662631953     
-0.0666679601663    
0.0626443424803     
0.00076990107477    
0.0347170049178     
0.0167017729322     
-0.054732431021     
-0.172848670251     
-0.0367974924809    
-0.154855646437     
-0.154498007143     
-0.125829933658     
-0.137000012797     
-0.125427730145     
-0.130960484943     
-0.1411703593       
-0.142116711348     
-0.165754419268     
-0.172722474573     
-0.198204336583     
-0.223975497946     
-0.230938223806     
-0.291364114446     
-0.239516802937     
-0.330505022925     
0.259762743855      
-0.144540826657     
-0.33673083586      
-0.0915998767455    
-0.235525048611     
-0.0961901065163    
-0.19944583216      
-0.118045677924     
-0.188703507108     
-0.141146060679     
-0.193336630124     
-0.175442741475     
-0.206821220093     
-0.224995784918     
-0.217970145919     
-0.2893013827       
-0.214630739756     
-0.411020372037     
0.312641681391      
-0.201385396896     
-0.407103407809     
-0.127135487753     
-0.275708585956     
-0.122214817746     
-0.225483883301     
-0.138355821717     
-0.206258367627     
-0.156332501671     
-0.203486928906     
-0.184527167353     
-0.208404813065     
-0.225569308627     
-0.20809323424      
-0.27669355475      
-0.186046116093     
-0.384982485349     
0.450614958589      
-0.226601321386     
-0.502605158074     
-0.154923578369     
-0.314123981397     