# vtk DataFile Version 3.0
PyPan results file. Generated by PyPan, USU AeroLab (c) 2020.
ASCII
DATASET POLYDATA
POINTS 492 float
-4.75               -4.0                0.0                 
-4.75               4.0                 0.0                 
-4.7255282402       -4.00441503525      -0.00143460487016   
-4.7255282402       -4.00441503525      0.00143460487016    
-4.7255282402       -4.00272893906      -0.00375584419817   
-4.7255282402       -4.00272893906      0.00375584419817    
-4.7255282402       -4.0                -0.00464247865602   
-4.7255282402       -4.0                0.00464247865602    
-4.7255282402       4.0                 -0.00464247865602   
-4.7255282402       4.0                 0.00464247865602    
-4.7255282402       4.00272893906       -0.00375584419817   
-4.7255282402       4.00272893906       0.00375584419817    
-4.7255282402       4.00441503525       -0.00143460487016   
-4.7255282402       4.00441503525       0.00143460487016    
-4.6545085907       -4.01323318481      -0.00429976172745   
-4.6545085907       -4.01323318481      0.00429976172745    
-4.6545085907       -4.00817871094      -0.0112569229677    
-4.6545085907       -4.00817871094      0.0112569229677     
-4.6545085907       -4.0                -0.0139143215492    
-4.6545085907       -4.0                0.0139143215492     
-4.6545085907       4.0                 -0.0139143215492    
-4.6545085907       4.0                 0.0139143215492     
-4.6545085907       4.00817871094       -0.0112569229677    
-4.6545085907       4.00817871094       0.0112569229677     
-4.6545085907       4.01323318481       -0.00429976172745   
-4.6545085907       4.01323318481       0.00429976172745    
-4.65211296082      -3.90211296082      0.0                 
-4.65211296082      3.90211296082       0.0                 
-4.62764120102      -3.90211296082      -0.00464247865602   
-4.62764120102      -3.90211296082      0.00464247865602    
-4.62764120102      3.90211296082       -0.00464247865602   
-4.62764120102      3.90211296082       0.00464247865602    
-4.55662155151      -3.90211296082      -0.0139143215492    
-4.55662155151      -3.90211296082      0.0139143215492     
-4.55662155151      3.90211296082       -0.0139143215492    
-4.55662155151      3.90211296082       0.0139143215492     
-4.54389286041      -4.02558851242      -0.00831415317953   
-4.54389286041      -4.02558851242      0.00831415317953    
-4.54389286041      -4.01581430435      -0.0217667371035    
-4.54389286041      -4.01581430435      0.0217667371035     
-4.54389286041      -4.0                -0.0269051659852    
-4.54389286041      -4.0                0.0269051659852     
-4.54389286041      4.0                 -0.0269051659852    
-4.54389286041      4.0                 0.0269051659852     
-4.54389286041      4.01581430435       -0.0217667371035    
-4.54389286041      4.01581430435       0.0217667371035     
-4.54389286041      4.02558851242       -0.00831415317953   
-4.54389286041      4.02558851242       0.00831415317953    
-4.44600582123      -3.90211296082      -0.0269051659852    
-4.44600582123      -3.90211296082      0.0269051659852     
-4.44600582123      3.90211296082       -0.0269051659852    
-4.44600582123      3.90211296082       0.0269051659852     
-4.4045085907       -4.03891468048      -0.0126441745088    
-4.4045085907       -4.03891468048      0.0126441745088     
-4.4045085907       -4.02405071259      -0.0331028774381    
-4.4045085907       -4.02405071259      0.0331028774381     
-4.4045085907       -4.0                -0.0409174077213    
-4.4045085907       -4.0                0.0409174077213     
-4.4045085907       4.0                 -0.0409174077213    
-4.4045085907       4.0                 0.0409174077213     
-4.4045085907       4.02405071259       -0.0331028774381    
-4.4045085907       4.02405071259       0.0331028774381     
-4.4045085907       4.03891468048       -0.0126441745088    
-4.4045085907       4.03891468048       0.0126441745088     
-4.36803388596      -3.61803388596      0.0                 
-4.36803388596      3.61803388596       0.0                 
-4.34356212616      -3.61803388596      -0.00464247865602   
-4.34356212616      -3.61803388596      0.00464247865602    
-4.34356212616      3.61803388596       -0.00464247865602   
-4.34356212616      3.61803388596       0.00464247865602    
-4.30662155151      -3.90211296082      -0.0409174077213    
-4.30662155151      -3.90211296082      0.0409174077213     
-4.30662155151      3.90211296082       -0.0409174077213    
-4.30662155151      3.90211296082       0.0409174077213     
-4.27254247665      -3.61803388596      -0.0139143215492    
-4.27254247665      -3.61803388596      0.0139143215492     
-4.27254247665      3.61803388596       -0.0139143215492    
-4.27254247665      3.61803388596       0.0139143215492     
-4.25               -4.05034923553      -0.0163594372571    
-4.25               -4.05034923553      0.0163594372571     
-4.25               -4.03111743927      -0.0428295619786    
-4.25               -4.03111743927      0.0428295619786     
-4.25               -4.0                -0.0529402531683    
-4.25               -4.0                0.0529402531683     
-4.25               4.0                 -0.0529402531683    
-4.25               4.0                 0.0529402531683     
-4.25               4.03111743927       -0.0428295619786    
-4.25               4.03111743927       0.0428295619786     
-4.25               4.05034923553       -0.0163594372571    
-4.25               4.05034923553       0.0163594372571     
-4.16192674637      -3.61803388596      -0.0269051659852    
-4.16192674637      -3.61803388596      0.0269051659852     
-4.16192674637      3.61803388596       -0.0269051659852    
-4.16192674637      3.61803388596       0.0269051659852     
-4.15211296082      -3.90211296082      -0.0529402531683    
-4.15211296082      -3.90211296082      0.0529402531683     
-4.15211296082      3.90211296082       -0.0529402531683    
-4.15211296082      3.90211296082       0.0529402531683     
-4.0954914093       -4.05665874481      -0.0184096004814    
-4.0954914093       -4.05665874481      0.0184096004814     
-4.0954914093       -4.03501701355      -0.0481969565153    
-4.0954914093       -4.03501701355      0.0481969565153     
-4.0954914093       -4.0                -0.0595747157931    
-4.0954914093       -4.0                0.0595747157931     
-4.0954914093       4.0                 -0.0595747157931    
-4.0954914093       4.0                 0.0595747157931     
-4.0954914093       4.03501701355       -0.0481969565153    
-4.0954914093       4.03501701355       0.0481969565153     
-4.0954914093       4.05665874481       -0.0184096004814    
-4.0954914093       4.05665874481       0.0184096004814     
-4.02254247665      -3.61803388596      -0.0409174077213    
-4.02254247665      -3.61803388596      0.0409174077213     
-4.02254247665      3.61803388596       -0.0409174077213    
-4.02254247665      3.61803388596       0.0409174077213     
-3.99760460854      -3.90211296082      -0.0595747157931    
-3.99760460854      -3.90211296082      0.0595747157931     
-3.99760460854      3.90211296082       -0.0595747157931    
-3.99760460854      3.90211296082       0.0595747157931     
-3.95610737801      -4.05488920212      -0.0178346466273    
-3.95610737801      -4.05488920212      0.0178346466273     
-3.95610737801      -4.03392362595      -0.046691711992     
-3.95610737801      -4.03392362595      0.046691711992      
-3.95610737801      -4.0                -0.0577141307294    
-3.95610737801      -4.0                0.0577141307294     
-3.95610737801      4.0                 -0.0577141307294    
-3.95610737801      4.0                 0.0577141307294     
-3.95610737801      4.03392362595       -0.046691711992     
-3.95610737801      4.03392362595       0.046691711992      
-3.95610737801      4.05488920212       -0.0178346466273    
-3.95610737801      4.05488920212       0.0178346466273     
-3.92557048798      -3.17557048798      0.0                 
-3.92557048798      3.17557048798       0.0                 
-3.90109872818      -3.17557048798      -0.00464247865602   
-3.90109872818      -3.17557048798      0.00464247865602    
-3.90109872818      3.17557048798       -0.00464247865602   
-3.90109872818      3.17557048798       0.00464247865602    
-3.86803388596      -3.61803388596      -0.0529402531683    
-3.86803388596      -3.61803388596      0.0529402531683     
-3.86803388596      3.61803388596       -0.0529402531683    
-3.86803388596      3.61803388596       0.0529402531683     
-3.85822033882      -3.90211296082      -0.0577141307294    
-3.85822033882      -3.90211296082      0.0577141307294     
-3.85822033882      3.90211296082       -0.0577141307294    
-3.85822033882      3.90211296082       0.0577141307294     
-3.8454914093       -4.0437951088       -0.0142299029976    
-3.8454914093       -4.0437951088       0.0142299029976     
-3.8454914093       -4.02706670761      -0.037254370749     
-3.8454914093       -4.02706670761      0.037254370749      
-3.8454914093       -4.0                -0.0460489317775    
-3.8454914093       -4.0                0.0460489317775     
-3.8454914093       4.0                 -0.0460489317775    
-3.8454914093       4.0                 0.0460489317775     
-3.8454914093       4.02706670761       -0.037254370749     
-3.8454914093       4.02706670761       0.037254370749      
-3.8454914093       4.0437951088        -0.0142299029976    
-3.8454914093       4.0437951088        0.0142299029976     
-3.83007907867      -3.17557048798      -0.0139143215492    
-3.83007907867      -3.17557048798      0.0139143215492     
-3.83007907867      3.17557048798       -0.0139143215492    
-3.83007907867      3.17557048798       0.0139143215492     
-3.7744717598       -4.0246257782       -0.00800147373229   
[...]
CELL_DATA 980
SCALARS pressure_coefficient float 1
LOOKUP_TABLE default
-0.379685980977     
0.045609170796      
0.521876091777      
0.55966703488       
0.362659174037      
0.254004378554      
0.1507172955        
0.0154444448971     
-0.0383787419895    
-0.176086557391     
-0.16488404059      
-0.241006051033     
-0.316695250804     
-0.332570516655     
-0.55186229265      
-0.489211875932     
-0.740863356201     
-0.600634873617     
-0.729594253019     
-0.292156614177     
0.473270809226      
0.60438446978       
0.522014424886      
0.388273098318      
0.230107926655      
0.173922461194      
0.133225522257      
0.105933698283      
0.0650347147157     
0.0582131468207     
-0.0435293477097    
-0.0354279851164    
-0.114610899621     
-0.118292129654     
-0.264883734705     
-0.319977639512     
-0.815098866405     
-1.19727761302      
-2.82436264468      
-5.06475302212      
-0.15895997009      
0.161668562252      
0.444989671541      
0.475401687726      
0.330192627455      
0.361728549719      
0.19804056419       
0.178971432901      
0.056011381012      
0.00290092441173    
-0.112277554217     
-0.170259348869     
-0.310454955882     
-0.356401885425     
-0.529870786436     
-0.592776081275     
-0.855565240621     
-0.877842256788     
-1.07359783772      
-0.658968914557     
0.338612234135      
0.520999214698      
0.40249907968       
0.258320416893      
0.207885579424      
0.0899009626359     
0.0612080787832     
0.0162716928953     
-0.0261113761191    
-0.0429932063618    
-0.096563118995     
-0.108466376408     
-0.190090137547     
-0.21151696546      
-0.356171415488     
-0.375658884098     
-0.692026381212     
-0.88368329871      
-2.01227714024      
-3.39021831133      
-0.051550183964     
0.283714072233      
0.447657226445      
0.455476521584      
0.331254158277      
0.356428820172      
0.19648619457       
0.20788687512       
0.0610879882842     
0.0499930901133     
-0.0989763159561    
-0.13353524767      
-0.302050025863     
-0.356535520883     
-0.571909808409     
-0.631193250391     
-0.968975202984     
-0.965491639237     
-1.23625954539      
-0.913558029105     
0.312046277246      
0.474758156123      
0.402849738081      
0.300995047276      
0.173581508523      
0.0809490708264     
0.0314298537201     
-0.0268242896038    
-0.0567007972205    
-0.0865254733339    
-0.122432704985     
-0.13601759352      
-0.200640227709     
-0.199001157045     
-0.341717453142     
-0.321530198215     
-0.639720484332     
-0.785896547761     
-1.91845765688      
-3.08832709966      
-0.0641748559741    
0.30475242773       
0.454152137973      
0.450864684338      
0.324640311611      
0.334619677612      
0.188045587595      
0.189277622363      
0.0519161575505     
0.0436272390862     
-0.105690072808     
-0.128170169194     
-0.306461094032     
-0.343423684232     
-0.577105445482     
-0.620855614548     
-0.972161882764     
-0.99811173187      
-1.23002572999      
-1.05037987066      
0.326117123292      
0.441201424246      
0.405918400433      
0.336298771559      
0.166118703211      
0.109146871144      
0.0190361600726     
-0.0124065027463    
-0.0713683806157    
-0.0795871110078    
-0.139389958528     
-0.130147675169     
-0.219347017124     
-0.195394347371     
-0.367639056341     
-0.324331995138     
-0.636899228007     
-0.738940055078     
-1.80843366131      
-2.79600014077      
-0.213416251382     
0.275956800443      
0.452341475916      
0.441388956158      
0.303010040881      
0.313170416875      
0.173613836001      
0.172754804727      
0.0404500386577     
0.0315391838902     
-0.110720427769     
-0.135253943549     
-0.299504517707     
-0.343908918583     
-0.555824527717     
-0.61572846606      
-0.934920289162     
-1.00018155707      
-1.16224546468      
-1.08286605671      
0.332341970481      
0.418594646041      
0.396405097687      
0.346520820517      
0.157732997891      
0.122680186283      
0.00788408752896    
-0.00199924505378   
-0.09075468612      
-0.0728770586568    
-0.167951568399     
-0.126527972685     
-0.257654926066     
-0.196166534749     
-0.433987883649     
-0.337507619207     
-0.661489597083     
-0.707246748399     
-1.63756995978      
-2.54774694316      
-0.35136011345      
0.254995954933      
0.441057958511      
0.429805867086      
0.287023770752      
0.31420053103       
0.165260549345      
0.18023208428       
0.0368656382724     
0.0426423721208     
-0.10752032998      
-0.123427720661     
-0.285605880356     
-0.331894223538     
-0.530274310887     
-0.602034589262     
-0.895943427357     
-0.982643228376     
-1.10313610802      
-1.06775921612      
0.327711928262      
0.408892083131      
0.383240038608      
0.340532813775      
0.150510975816      
0.122124816828      
0.00246454481984    
0.0017295023236     
-0.100978408464     
-0.0649816348823    
-0.184289101076     
-0.115169359636     
-0.280291768581     
-0.18318633859      
-0.473960497004     
-0.320870678761     
-0.68025019995      
-0.700759661897     
-1.55931654282      
-2.58712066256      
-0.348630757244     
0.260539840995      
0.426278292289      
0.418427339776      
0.284535358469      
0.327205591093      
0.165761642608      
0.200073757687      
0.0405867344986     
0.0638994491195     
-0.10250068192      
-0.104749416494     
-0.279452584107     
-0.317975565083     
-0.521381267924     
-0.591674093661     
-0.885368266681     
-0.968271398745     
-1.09429860345      
-1.04622821021      
0.31909134109       
0.410660471398      
0.377140100423      
0.332030428404      
0.149534258114      
0.117414278574      
0.00429140653424    
0.00332900015968    
-0.0992852483786    
-0.0568575004863    
-0.180491954923     
-0.100544558205     
-0.272994532119     
-0.161185316074     
-0.458175083414     
-0.284134295425     
-0.668590839269     
-0.698835746274     
-1.57044903775      
-2.74967362775      
-0.236264165674     
0.271116130815      
0.414667330262      
0.410358238994      
0.28600418182       
0.338051561188      
0.175682303666      
0.217113756381      
0.0569428348064     
0.076369155066      
-0.0897829754653    
-0.0970893357529    
-0.275435308544     
-0.314963092211     
-0.515212636251     
-0.593016426237     
-0.875329060485     
-0.970019591646     
-1.07310512221      
-1.04221089638      
0.32858134828       
0.413423801832      
0.371516163032      
0.330423727663      
0.141378968299      
0.11622303971       
-0.00924920177375   
0.00194325350858    
-0.109255039189     
-0.0594370405252    
-0.180171591538     
-0.0996001033752    
-0.263361960617     
-0.148416952779     
-0.433736040297     
-0.260820596662     
-0.630265726672     
-0.668241801934     
-1.48512955125      
-2.66666829679      
0.241821245103      
0.387430270369      
0.376207416115      
0.412042506088      
0.292820991123      
0.378392128977      
0.210189745036      
0.246782926699      
0.112569878877      
0.0978098412791     
-0.0241606396337    
-0.0747629934081    
-0.213029469966     
-0.291262721248     
-0.474319310355     
-0.575711281497     
-0.839424394649     
-0.954310592998     
-0.977330776352     
-1.00978322735      
0.377569480757      
0.421018101284      
0.34341206508       
0.324665069538      
0.109998280184      
0.113011379836      
-0.0252728684563    
-0.00207250919993   
-0.0951176074678    
-0.0662497862118    
-0.132746960727     
-0.101562575436     
-0.177138671357     
-0.128064611525     
-0.287494602578     
-0.191639194235     
-0.475297204873     
-0.57401956278      
-1.22833647502      
-2.3433665405       
0.435587322636      
0.482255617403      
0.346207688183      
0.448865872332      
0.272656058255      
0.298834615491      
0.163172449649      
0.176456269445      
0.0596824352017     
0.0727246876105     
-0.0520884214733    
-0.0530088464786    
-0.196251343372     
-0.219491903659     
-0.403594789909     
-0.447645985181     
-0.776631975925     
-0.863332009425     
-0.808979933799     
-0.918287014449     
0.408332909906      
0.450741207478      
0.370405085267      
0.368268016615      
0.123775643948      
0.13657018275       
0.005242216575      
-0.0131505828065    
-0.042771006856     
-0.0941817999608    
-0.0638611326314    
-0.143151660485     
-0.0753255551321    
-0.182997527735     
-0.0900802339747    
-0.216991880907     
-0.242583303678     
-0.419583167226     
-0.712691193909     
-1.46411056708      
-0.152673824764     
-0.288790215338     
-0.259447214162     
-0.192970985407     
-0.213677502215     
-0.169783641134     
-0.199256753998     
-0.190341681456     
-0.212775118        
-0.235212440083     
-0.259406150968     
-0.306891682671     
-0.350676884876     
-0.417572255339     
-0.510811345464     
-0.628491959226     
-0.84262930019      
-0.719442362182     
-0.838428354793     
-1.0888345759       
-0.456946933685     
-0.740728148491     
-0.414445452874     
-0.588256566419     
-0.404011149719     
-0.512069161968     
-0.409316733284     
-0.481976848589     
-0.44211251352      
-0.489778286315     
-0.51559468337      
-0.532044238984     
-0.649971453767     
-0.63205093314      
-1.00506239311      
-0.660793929672     
-1.26557366327      
-1.49179103151      
-0.641679603214     
-0.9775635552       
-0.580821118185     
-0.761536497706     
-0.551618460759     
-0.646866752747     
-0.537726550528     
-0.584209936625     
-0.548591012331     
-0.556582002288     
-0.594916456785     
-0.554625940072     
-0.692993807563     
-0.579547759165     
-0.972435632572     
-0.201460736129     
-1.19397661741      
-1.76308409405      
-0.686603895662     
-1.0617498802       
-0.60895587172      
-0.784481675274     
-0.566670000136     
-0.641408931511     
-0.540328460017     
-0.558775980896     
-0.535207392792     
-0.509992146362     
-0.558672272703     
-0.478710720686     
-0.62004781679      
-0.439817943088     
-0.784674836653     
0.396189304354      
-0.600107215159     
-1.58374950685      
-0.394209831747     
-0.805723912906     
-0.309155298081     
-0.524097308702     
-0.292413485775     
-0.390266888449     
-0.281909360806     
-0.302114587772     
-0.267527344105     
-0.22131960472      
-0.238275786177     
-0.103712710856     
-0.159141547462     
0.165788532279      
0.0832760917206     
0.883792978177      
-0.379685767237     
0.0456085752931     
0.521876189355      
0.559667547454      
0.362659217337      
0.254004448007      
0.150717257542      
0.0154444343792     
-0.038378776442     
-0.176086587747     
-0.164884011147     
-0.241005998995     
-0.316695311615     
-0.332570510571     
-0.551862394283     
-0.489211869482     
-0.740863187913     
-0.600634853765     
-0.7295940608       
-0.292156455521     
0.473270841351      
0.60438447049       
0.522014425359      
0.388273114485      
0.230107902114      
0.173922479689      
0.133225500857      
0.10593372826       
0.0650346553279     
0.0582132069741     
-0.0435294410399    
-0.0354279309052    
-0.11461090957      
-0.118291983733     
-0.264883689305     
-0.319977224334     
-0.815098890022     
-1.19727648133      
-2.82435663537      
-5.06474423416      
-0.158958614235     
0.161668838581      
0.444989662549      
0.475401708133      
0.330192624534      
0.36172864031       
0.198040540555      
0.178971547574      
0.0560114383544     
0.00290107761569    
-0.112277364734     
-0.170259198046     
-0.310454933067     
-0.356401875843     
-0.529870760499     
-0.59277610648      
-0.855565322543     
-0.877842110434     
-1.07359602638      
-0.658968244174     
0.33861220107       
0.520999179885      
0.402499007493      
0.25832034027       
0.207885549385      
0.0899009660724     
0.0612080583322     
0.0162716980316     
-0.0261114465289    
-0.0429932966637    
-0.0965631503955    
-0.108466381584     
-0.190090118965     
-0.211516874827     
-0.35617130744      
-0.375658556995     
-0.692026924654     
-0.883683705957     
-2.01227199734      
-3.39021485242      
-0.0515478544212    
0.283714894098      
0.447657241037      
0.455476747489      
0.331254434322      
0.356429228313      
0.196486172869      
0.20788698411       
0.0610880911452     
0.049993105677      
-0.0989761132801    
-0.133535020928     
-0.302049736486     
-0.356535403274     
-0.571909453502     
-0.631193273248     
-0.968975385675     
-0.965492034516     
-1.23626130766      
-0.913557783737     
0.312046471661      
0.474758189174      
0.402849640144      
0.300994828834      
0.173581493079      
0.0809489219155     
0.0314298160604     
-0.0268244102156    
-0.0567009174907    
-0.0865256668301    
-0.122432748858     
-0.136017602648     
-0.200640103561     
-0.199001054199     
-0.341716963156     
-0.321530055709     
-0.639721493799     
-0.785896115488     
-1.91846021294      
-3.08832757974      
-0.0641713134268    
0.304754134792      
0.454152041778      
0.450864678084      
0.324640257759      
0.334619959212      
0.188045629514      
0.189277617097      
0.0519161710359     
0.0436272279862     
-0.105689838517     
-0.128169950976     
-0.306461047584     
-0.343423439064     
-0.577105566515     
-0.620855277674     
-0.972161923877     
-0.998111378913     
-1.23002202363      
-1.05037768444      
0.326116808367      
0.441201725673      
0.405918409228      
0.336298619719      
0.166118721996      
0.109146778705      
0.0190360021946     
-0.0124067346406    
-0.0713685661211    
-0.0795874016044    
-0.139389889485     
-0.130147751051     
-0.219347004433     
-0.19539436025      
-0.367638372628     
-0.324331990352     
-0.636898716562     
-0.738939548818     
-1.80844710127      
-2.79600546533      
-0.213415560248     
0.275957535235      
0.452341577609      
0.441389104511      
0.303010192167      
0.313169829524      
0.173613419383      
0.172754464138      
0.0404498314649     
0.0315388317349     
-0.11072040976      
-0.135253908261     
-0.299504593949     
-0.343908986336     
-0.555824709748     
-0.615728573894     
-0.934919519816     
-1.00018081999      
-1.16224441307      
-1.08286562733      
0.332342453249      
0.418594610488      
0.396404991794      
0.34652112973       
0.157732799166      
0.122680284249      
0.00788376550034    
-0.00199930666942   
-0.0907552313301    
-0.0728773510485    
-0.167951883326     
-0.126528045724     
-0.257655006137     
-0.196166703491     
-0.433989290005     
-0.337507819262     
-0.661488234333     
-0.707246029817     
-1.63756649541      
-2.54774171727      
-0.351362067553     
0.254996496391      
0.441057155389      
0.429805121453      
0.287021346119      
0.314199638315      
0.165259939925      
0.18023167405       
0.0368652977878     
0.0426421438261     
-0.107520296411     
-0.123427598948     
-0.285605862335     
-0.331894160047     
-0.530273877128     
-0.602034976722     
-0.895944249456     
-0.982643419947     
-1.10313640111      
-1.067759661        
0.327712178613      
0.408892059989      
0.383239775647      
0.340532703452      
0.150510436912      
0.122124974003      
0.00246419745028    
0.00172944751782    
-0.100979175569     
-0.0649819581338    
-0.184290626417     
-0.115169572367     
-0.280292694829     
-0.183186229579     
-0.473963549595     
-0.320870476069     
-0.680257287308     
-0.700759230284     
-1.5593079634       
-2.58711830647      
-0.34863723734      
0.260541310006      
0.426277754702      
0.418426355173      
0.284535002237      
0.32720678893       
0.165761838244      
0.200074611904      
0.0405870199866     
0.0638999697402     
-0.102500013461     
-0.104748711529     
-0.279451990573     
-0.317975343231     
-0.521381877974     
-0.591674094558     
-0.885365678085     
-0.968274282308     
-1.09431637317      
-1.04624258753      
0.319089811743      
0.410660459059      
0.37713980715       
0.332030304911      
0.149534041725      
0.117413906265      
0.00429136955685    
0.00332891598809    
-0.0992856004825    
-0.0568575987985    
-0.180491548838     
-0.100543817268     
-0.272994998617     
-0.161184539349     
-0.458173188651     
-0.284131506918     
-0.668592374977     
-0.698834954133     
-1.57048274371      
-2.74969069662      
-0.236272068863     
0.271113455685      
0.414667054075      
0.410358427119      
0.286003858538      
0.338051619941      
0.175681350405      
0.217112919956      
0.056942397713      
0.0763690124558     
-0.0897824089031    
-0.0970891662582    
-0.275434311976     
-0.314962765068     
-0.515212940205     
-0.593016779908     
-0.875330092746     
-0.970020546745     
-1.07309431613      
-1.04220128754      
0.328580847613      
0.41342407982       
0.371516004491      
0.330423289297      
0.141378833129      
0.116222676239      
-0.00924996906739   
0.00194268178054    
-0.109256379859     
-0.0594376557819    
-0.180173184304     
-0.0996005395848    
-0.263363156126     
-0.148416615044     
-0.433737560989     
-0.260821630389     
-0.630263100626     
-0.668240061722     
-1.48511329277      
-2.66665142887      
0.241821758212      
0.387428995965      
0.376207383609      
0.412044698475      
0.292821073225      
0.378392295209      
0.210188686783      
0.246782797956      
0.112569705145      
0.09781044401       
-0.0241598338506    
-0.0747617517336    
-0.213027800361     
-0.291261360235     
-0.474319450579     
-0.575711371893     
-0.839422805075     
-0.954309216845     
-0.977320272377     
-1.00977345254      
0.377568707766      
0.421018491628      
0.343411916211      
0.324664795071      
0.10999879681       
0.113011477973      
-0.0252733996564    
-0.00207298012273   
-0.0951187049491    
-0.0662508244935    
-0.132747854834     
-0.101562346062     
-0.177137763742     
-0.12806308122      
-0.287492750725     
-0.19163796386      
-0.475294754332     
-0.574019169915     
-1.22832168627      
-2.34335395187      
0.435587959308      
0.482254962646      
0.346207683158      
0.448868051806      
0.272656137126      
0.298834588601      
0.163172114113      
0.176455402419      
0.0596816446381     
0.0727244376511     
-0.0520882085521    
-0.0530086615415    
-0.1962495899       
-0.21949133613      
-0.403593641839     
-0.447644188736     
-0.77662425259      
-0.863327320599     
-0.808977022987     
-0.918285355981     
0.408332327652      
0.450741556165      
0.3704057963        
0.36826729837       
0.123777154646      
0.136570684034      
0.00524144185597    
-0.0131517650701    
-0.0427713499665    
-0.0941824077724    
-0.0638607540805    
-0.143151899658     
-0.0753260442011    
-0.182997628082     
-0.0900824763618    
-0.216992901185     
-0.24258153813      
-0.419577959527     
-0.712670824575     
-1.46409978849      
-0.152629914971     
-0.288683976372     
-0.259438951628     
-0.192976876655     
-0.213670802655     
-0.169770295697     
-0.199255096249     
-0.190342002875     
-0.212775934684     
-0.235209811368     
-0.259404119028     
-0.306884386893     
-0.350673545444     
-0.417571774472     
-0.51080974014      
-0.628498301341     
-0.842629841193     
-0.719467728857     
-0.838481598584     
-1.08846308066      
-0.456943548723     
-0.740723416974     
-0.414442636761     
-0.588216075291     
-0.404000123797     
-0.512054872699     
-0.40931508582      
-0.481974117762     
-0.442113280395     
-0.48977228983      
-0.515589983341     
-0.532030588131     
-0.649967541357     
-0.632051505374     
-1.00505342393      
-0.660800510305     
-1.26564083025      
-1.49183073009      
-0.6416764742       
-0.977596633413     
-0.580836198011     
-0.76153949082      
-0.551619660324     
-0.646866464902     
-0.537726088456     
-0.584213079371     
-0.548592457654     
-0.556581829779     
-0.594916341694     
-0.554626051659     
-0.692993558305     
-0.579559978844     
-0.972440593747     
-0.201488311754     
-1.19391448275      
-1.76283503861      
-0.68660962125      
-1.06175355605      