# vtk DataFile Version 3.0
PyPan results file. Generated by PyPan, USU AeroLab (c) 2020.
ASCII
DATASET POLYDATA
POINTS 492 float
-4.75               -4.0                0.0                 
-4.75               4.0                 0.0                 
-4.7255282402       -4.00441503525      -0.00143460487016   
-4.7255282402       -4.00441503525      0.00143460487016    
-4.7255282402       -4.00272893906      -0.00375584419817   
-4.7255282402       -4.00272893906      0.00375584419817    
-4.7255282402       -4.0                -0.00464247865602   
-4.7255282402       -4.0                0.00464247865602    
-4.7255282402       4.0                 -0.00464247865602   
-4.7255282402       4.0                 0.00464247865602    
-4.7255282402       4.00272893906       -0.00375584419817   
-4.7255282402       4.00272893906       0.00375584419817    
-4.7255282402       4.00441503525       -0.00143460487016   
-4.7255282402       4.00441503525       0.00143460487016    
-4.6545085907       -4.01323318481      -0.00429976172745   
-4.6545085907       -4.01323318481      0.00429976172745    
-4.6545085907       -4.00817871094      -0.0112569229677    
-4.6545085907       -4.00817871094      0.0112569229677     
-4.6545085907       -4.0                -0.0139143215492    
-4.6545085907       -4.0                0.0139143215492     
-4.6545085907       4.0                 -0.0139143215492    
-4.6545085907       4.0                 0.0139143215492     
-4.6545085907       4.00817871094       -0.0112569229677    
-4.6545085907       4.00817871094       0.0112569229677     
-4.6545085907       4.01323318481       -0.00429976172745   
-4.6545085907       4.01323318481       0.00429976172745    
-4.65211296082      -3.90211296082      0.0                 
-4.65211296082      3.90211296082       0.0                 
-4.62764120102      -3.90211296082      -0.00464247865602   
-4.62764120102      -3.90211296082      0.00464247865602    
-4.62764120102      3.90211296082       -0.00464247865602   
-4.62764120102      3.90211296082       0.00464247865602    
-4.55662155151      -3.90211296082      -0.0139143215492    
-4.55662155151      -3.90211296082      0.0139143215492     
-4.55662155151      3.90211296082       -0.0139143215492    
-4.55662155151      3.90211296082       0.0139143215492     
-4.54389286041      -4.02558851242      -0.00831415317953   
-4.54389286041      -4.02558851242      0.00831415317953    
-4.54389286041      -4.01581430435      -0.0217667371035    
-4.54389286041      -4.01581430435      0.0217667371035     
-4.54389286041      -4.0                -0.0269051659852    
-4.54389286041      -4.0                0.0269051659852     
-4.54389286041      4.0                 -0.0269051659852    
-4.54389286041      4.0                 0.0269051659852     
-4.54389286041      4.01581430435       -0.0217667371035    
-4.54389286041      4.01581430435       0.0217667371035     
-4.54389286041      4.02558851242       -0.00831415317953   
-4.54389286041      4.02558851242       0.00831415317953    
-4.44600582123      -3.90211296082      -0.0269051659852    
-4.44600582123      -3.90211296082      0.0269051659852     
-4.44600582123      3.90211296082       -0.0269051659852    
-4.44600582123      3.90211296082       0.0269051659852     
-4.4045085907       -4.03891468048      -0.0126441745088    
-4.4045085907       -4.03891468048      0.0126441745088     
-4.4045085907       -4.02405071259      -0.0331028774381    
-4.4045085907       -4.02405071259      0.0331028774381     
-4.4045085907       -4.0                -0.0409174077213    
-4.4045085907       -4.0                0.0409174077213     
-4.4045085907       4.0                 -0.0409174077213    
-4.4045085907       4.0                 0.0409174077213     
-4.4045085907       4.02405071259       -0.0331028774381    
-4.4045085907       4.02405071259       0.0331028774381     
-4.4045085907       4.03891468048       -0.0126441745088    
-4.4045085907       4.03891468048       0.0126441745088     
-4.36803388596      -3.61803388596      0.0                 
-4.36803388596      3.61803388596       0.0                 
-4.34356212616      -3.61803388596      -0.00464247865602   
-4.34356212616      -3.61803388596      0.00464247865602    
-4.34356212616      3.61803388596       -0.00464247865602   
-4.34356212616      3.61803388596       0.00464247865602    
-4.30662155151      -3.90211296082      -0.0409174077213    
-4.30662155151      -3.90211296082      0.0409174077213     
-4.30662155151      3.90211296082       -0.0409174077213    
-4.30662155151      3.90211296082       0.0409174077213     
-4.27254247665      -3.61803388596      -0.0139143215492    
-4.27254247665      -3.61803388596      0.0139143215492     
-4.27254247665      3.61803388596       -0.0139143215492    
-4.27254247665      3.61803388596       0.0139143215492     
-4.25               -4.05034923553      -0.0163594372571    
-4.25               -4.05034923553      0.0163594372571     
-4.25               -4.03111743927      -0.0428295619786    
-4.25               -4.03111743927      0.0428295619786     
-4.25               -4.0                -0.0529402531683    
-4.25               -4.0                0.0529402531683     
-4.25               4.0                 -0.0529402531683    
-4.25               4.0                 0.0529402531683     
-4.25               4.03111743927       -0.0428295619786    
-4.25               4.03111743927       0.0428295619786     
-4.25               4.05034923553       -0.0163594372571    
-4.25               4.05034923553       0.0163594372571     
-4.16192674637      -3.61803388596      -0.0269051659852    
-4.16192674637      -3.61803388596      0.0269051659852     
-4.16192674637      3.61803388596       -0.0269051659852    
-4.16192674637      3.61803388596       0.0269051659852     
-4.15211296082      -3.90211296082      -0.0529402531683    
-4.15211296082      -3.90211296082      0.0529402531683     
-4.15211296082      3.90211296082       -0.0529402531683    
-4.15211296082      3.90211296082       0.0529402531683     
-4.0954914093       -4.05665874481      -0.0184096004814    
-4.0954914093       -4.05665874481      0.0184096004814     
-4.0954914093       -4.03501701355      -0.0481969565153    
-4.0954914093       -4.03501701355      0.0481969565153     
-4.0954914093       -4.0                -0.0595747157931    
-4.0954914093       -4.0                0.0595747157931     
-4.0954914093       4.0                 -0.0595747157931    
-4.0954914093       4.0                 0.0595747157931     
-4.0954914093       4.03501701355       -0.0481969565153    
-4.0954914093       4.03501701355       0.0481969565153     
-4.0954914093       4.05665874481       -0.0184096004814    
-4.0954914093       4.05665874481       0.0184096004814     
-4.02254247665      -3.61803388596      -0.0409174077213    
-4.02254247665      -3.61803388596      0.0409174077213     
-4.02254247665      3.61803388596       -0.0409174077213    
-4.02254247665      3.61803388596       0.0409174077213     
-3.99760460854      -3.90211296082      -0.0595747157931    
-3.99760460854      -3.90211296082      0.0595747157931     
-3.99760460854      3.90211296082       -0.0595747157931    
-3.99760460854      3.90211296082       0.0595747157931     
-3.95610737801      -4.05488920212      -0.0178346466273    
-3.95610737801      -4.05488920212      0.0178346466273     
-3.95610737801      -4.03392362595      -0.046691711992     
-3.95610737801      -4.03392362595      0.046691711992      
-3.95610737801      -4.0                -0.0577141307294    
-3.95610737801      -4.0                0.0577141307294     
-3.95610737801      4.0                 -0.0577141307294    
-3.95610737801      4.0                 0.0577141307294     
-3.95610737801      4.03392362595       -0.046691711992     
-3.95610737801      4.03392362595       0.046691711992      
-3.95610737801      4.05488920212       -0.0178346466273    
-3.95610737801      4.05488920212       0.0178346466273     
-3.92557048798      -3.17557048798      0.0                 
-3.92557048798      3.17557048798       0.0                 
-3.90109872818      -3.17557048798      -0.00464247865602   
-3.90109872818      -3.17557048798      0.00464247865602    
-3.90109872818      3.17557048798       -0.00464247865602   
-3.90109872818      3.17557048798       0.00464247865602    
-3.86803388596      -3.61803388596      -0.0529402531683    
-3.86803388596      -3.61803388596      0.0529402531683     
-3.86803388596      3.61803388596       -0.0529402531683    
-3.86803388596      3.61803388596       0.0529402531683     
-3.85822033882      -3.90211296082      -0.0577141307294    
-3.85822033882      -3.90211296082      0.0577141307294     
-3.85822033882      3.90211296082       -0.0577141307294    
-3.85822033882      3.90211296082       0.0577141307294     
-3.8454914093       -4.0437951088       -0.0142299029976    
-3.8454914093       -4.0437951088       0.0142299029976     
-3.8454914093       -4.02706670761      -0.037254370749     
-3.8454914093       -4.02706670761      0.037254370749      
-3.8454914093       -4.0                -0.0460489317775    
-3.8454914093       -4.0                0.0460489317775     
-3.8454914093       4.0                 -0.0460489317775    
-3.8454914093       4.0                 0.0460489317775     
-3.8454914093       4.02706670761       -0.037254370749     
-3.8454914093       4.02706670761       0.037254370749      
-3.8454914093       4.0437951088        -0.0142299029976    
-3.8454914093       4.0437951088        0.0142299029976     
-3.83007907867      -3.17557048798      -0.0139143215492    
-3.83007907867      -3.17557048798      0.0139143215492     
-3.83007907867      3.17557048798       -0.0139143215492    
-3.83007907867      3.17557048798       0.0139143215492     
-3.7744717598       -4.0246257782       -0.00800147373229   
[...]
CELL_DATA 980
SCALARS pressure_coefficient float 1
LOOKUP_TABLE default
-0.888382550766     
-0.310779003817     
0.565659335991      
0.619608263288      
0.425017126035      
0.30667484744       
0.193039415497      
0.0449106277568     
-0.0169860552362    
-0.166043151369     
-0.162666048946     
-0.246557795211     
-0.336509854775     
-0.359180693338     
-0.607226582866     
-0.548332533423     
-0.864763516425     
-0.713609507143     
-0.985272728721     
-0.480517955845     
0.396568561505      
0.613232324498      
0.584805647751      
0.464378393326      
0.295459148313      
0.240688831229      
0.180494199132      
0.153931857441      
0.0955227001125     
0.0875108503647     
-0.0283803548118    
-0.0218888871243    
-0.122865947457     
-0.129832674637     
-0.317985580929     
-0.388648295413     
-1.00693373842      
-1.49025147556      
-3.63244449855      
-6.65700495166      
-0.530278357414     
-0.0775907275141    
0.471074095801      
0.499550757486      
0.377475864827      
0.408770732902      
0.24071538742       
0.218752933239      
0.0864799825695     
0.0257627041782     
-0.0997343159167    
-0.167589630911     
-0.32412071042      
-0.379816711449     
-0.586783044236     
-0.657549894059     
-0.998375649174     
-1.02707124193      
-1.40770249925      
-0.93799726394      
0.21755360506       
0.505676402934      
0.460562990977      
0.340638274212      
0.26890576073       
0.157723009065      
0.106269228815      
0.0634348784952     
-0.000796447326631  
-0.0162034227821    
-0.0929542928388    
-0.10487718176      
-0.213063767804     
-0.238999051027     
-0.42089468182      
-0.451417893666     
-0.842497200954     
-1.07966431274      
-2.56887757714      
-4.32568307424      
-0.376899108042     
0.112218493344      
0.474367287248      
0.48207573403       
0.37513932559       
0.397881519765      
0.23739402563       
0.247734633279      
0.0926054005237     
0.0789851785023     
-0.0826763680401    
-0.122383981078     
-0.311225597398     
-0.373303550164     
-0.626843056263     
-0.696907200288     
-1.11971731539      
-1.13293738326      
-1.59981674565      
-1.25784545366      
0.172455162757      
0.412742914616      
0.458293875652      
0.373973126219      
0.232212515991      
0.143664014117      
0.0719819752378     
0.0138205896129     
-0.0351919421089    
-0.0673430447599    
-0.120406287517     
-0.137753724548     
-0.221786181552     
-0.225195031659     
-0.400189273454     
-0.387155373657     
-0.775066962287     
-0.952601285558     
-2.4276618626       
-3.88542717488      
-0.391432299943     
0.143729835822      
0.481681959355      
0.480988355285      
0.369148068905      
0.376941467034      
0.228657849465      
0.228371769468      
0.0831207692578     
0.0728299936834     
-0.0892841690844    
-0.114877248689     
-0.314806833944     
-0.356680793836     
-0.630021437812     
-0.683063538779     
-1.12038559018      
-1.16602884685      
-1.58921112244      
-1.41336806163      
0.188860098841      
0.355424572829      
0.462244929234      
0.402788026666      
0.225115420506      
0.168741942578      
0.0594707219527     
0.0265069015678     
-0.0501462085264    
-0.0611903406268    
-0.137574027953     
-0.131748892047     
-0.24070327061      
-0.22055169456      
-0.426798270599     
-0.388508358045     
-0.769529988458     
-0.895795076245     
-2.29467705453      
-3.52847180285      
-0.580536982765     
0.10693830665       
0.477777746978      
0.472311951622      
0.348690288807      
0.35629166861       
0.21420300905       
0.211606166211      
0.071431603762      
0.060444242038      
-0.0944381883637    
-0.12194367367      
-0.307248447534     
-0.356505762547     
-0.606565101781     
-0.676177509838     
-1.07841337616      
-1.16526678886      
-1.5094430008       
-1.44489542769      
0.200190289544      
0.325063262362      
0.453159316825      
0.409644815428      
0.216733653591      
0.180766880049      
0.0484032452699     
0.0364206100335     
-0.0698292648076    
-0.0543975731675    
-0.166948010913     
-0.127753264232     
-0.280511303616     
-0.220816538017     
-0.49684082525      
-0.401717754839     
-0.794856255299     
-0.858959922384     
-2.09695393365      
-3.23789270249      
-0.747724516589     
0.0858584195637     
0.463149616749      
0.45802527685       
0.332479528284      
0.35550975206       
0.205486652358      
0.218390151121      
0.0677223854391     
0.0715474588385     
-0.0910210364654    
-0.109634462353     
-0.29245273289      
-0.343536921285     
-0.578850886094     
-0.660736116716     
-1.03490495106      
-1.14423836296      
-1.43981026864      
-1.42369777204      
0.199277643565      
0.316361904249      
0.439563935348      
0.40251398464       
0.209001471347      
0.179378509581      
0.0428446982684     
0.0397682762997     
-0.0801366832215    
-0.0463936181792    
-0.183516165187     
-0.115745754398     
-0.303563506009     
-0.206536604779     
-0.538053936581     
-0.382569775835     
-0.813183132196     
-0.850021512814     
-2.00442058341      
-3.2797522525       
-0.72756637636      
0.104624010371      
0.447133615014      
0.44361614989       
0.328978509821      
0.365842540426      
0.205757765804      
0.237594653897      
0.0717274969008     
0.0930503737247     
-0.0853684820769    
-0.0902782625756    
-0.285511395417     
-0.328673318262     
-0.568950214502     
-0.649070203987     
-1.02246179234      
-1.12715569222      
-1.42745137725      
-1.39607567776      
0.191680101595      
0.3228636638        
0.432537278407      
0.394182259182      
0.207284578281      
0.174241675338      
0.0443405016703     
0.0409792743131     
-0.0783146759161    
-0.0382901434277    
-0.179052510844     
-0.100486462464     
-0.294630071451     
-0.182810300265     
-0.518280145544     
-0.341513451404     
-0.796416978665     
-0.845942590725     
-2.01119694524      
-3.4631305546       
-0.544013366142     
0.136089175431      
0.43879084556       
0.435777014166      
0.330766754225      
0.376397590724      
0.216350588913      
0.255148198874      
0.0895262615985     
0.106286099088      
-0.0705764261059    
-0.0819186659186    
-0.2793341438       
-0.324978523397     
-0.560915865485     
-0.649561490387     
-1.00943255772      
-1.12715880834      
-1.39838492217      
-1.3875999614       
0.207741977698      
0.328205092664      
0.427329148165      
0.392224201325      
0.19818837865       
0.172186463288      
0.0296733315251     
0.0386073045799     
-0.0891977473633    
-0.0417482716558    
-0.178623766413     
-0.0999893609326    
-0.282472466158     
-0.169208053056     
-0.485651213637     
-0.314253931959     
-0.743923591278     
-0.808478443329     
-1.89187300588      
-3.35584680515      
0.116344047532      
0.323827657557      
0.414393411997      
0.44454302202       
0.337009742785      
0.417845562244      
0.249820280741      
0.28571435362       
0.145281581945      
0.128790192579      
-0.00260182034085   
-0.0578133758504    
-0.211154649184     
-0.298531894331     
-0.511246793321     
-0.628311814703     
-0.962293869588     
-1.10514825713      
-1.27614998731      
-1.34118587852      
0.280537053178      
0.341144234763      
0.402604860298      
0.384802383705      
0.16350353569       
0.165459661724      
0.00766141412718    
0.0304688843049     
-0.0813868041406    
-0.0527879064352    
-0.134599453968     
-0.105405261122     
-0.193814849197     
-0.149976545682     
-0.325890478815     
-0.239776789178     
-0.557262607731     
-0.693006833554     
-1.52711171275      
-2.9085237478       
0.441926014569      
0.480571784809      
0.390154820962      
0.493122670385      
0.316723612998      
0.345378633529      
0.200254650368      
0.214580269992      
0.0878563658641     
0.101709877785      
-0.0345457540239    
-0.0359760583717    
-0.194508162972     
-0.222416874967     
-0.430803799883     
-0.488908755627     
-0.880597716286     
-0.996936227179     
-1.06190063663      
-1.21584583469      
0.323340392379      
0.378180039456      
0.423379964335      
0.4178919835        
0.162883344479      
0.176639904672      
0.025888974659      
0.0100087392223     
-0.0358646091169    
-0.0852336952163    
-0.066940153358     
-0.146126250705     
-0.0870897160802    
-0.198663875738     
-0.114437929939     
-0.254321032625     
-0.294046000408     
-0.508726511959     
-0.862888774571     
-1.78713891509      
-0.208803228026     
-0.350216597002     
-0.30018855257      
-0.234035866386     
-0.245885387452     
-0.201929348503     
-0.228577393803     
-0.220059262166     
-0.241147444046     
-0.266472893044     
-0.289554446975     
-0.34413996569      
-0.387479310841     
-0.469362257721     
-0.564723902657     
-0.721809008892     
-0.956961225849     
-0.959119417668     
-1.0647524907       
-1.31601093117      
-0.603974987236     
-0.903310461264     
-0.536923640553     
-0.719801595705     
-0.51182488811      
-0.625684471171     
-0.508376290042     
-0.585186221575     
-0.537956619165     
-0.590367266069     
-0.616063569261     
-0.640558986403     
-0.76890778514      
-0.769174421736     
-1.18602880251      
-0.933263844215     
-1.60260621296      
-1.80881150542      
-0.830472661815     
-1.19186453389      
-0.743571655322     
-0.932623867118     
-0.696612703733     
-0.793177328034     
-0.670690820115     
-0.714839112239     
-0.674935718161     
-0.679406382941     
-0.72227038251      
-0.679475311278     
-0.834721001417     
-0.722698747459     
-1.16219921083      
-0.430422075883     
-1.48783381937      
-2.1109834039       
-0.862217404307     
-1.27253393583      
-0.760223445968     
-0.943818294998     
-0.70000383747      
-0.772361365837     
-0.660837365186     
-0.671370558799     
-0.64736363956      
-0.611233220598     
-0.668384165373     
-0.576092364599     
-0.737004450282     
-0.542308988724     
-0.923048660546     
0.277216031111      
-0.705251750303     
-1.84883543053      
-0.458107928676     
-0.929576328389     
-0.362088523195     
-0.603340790474     
-0.340597441844     
-0.44672556795      
-0.325149324653     
-0.341935466145     
-0.303777712015     
-0.246112455856     
-0.264652055849     
-0.112053780744     
-0.170585623221     
0.180935380543      
0.0956458354381     
0.877774487968      
-0.888383362201     
-0.310780152746     
0.565659468954      
0.619609124566      
0.425017288426      
0.306675023145      
0.193039375325      
0.0449106056883     
-0.0169861410326    
-0.166043219905     
-0.162666009347     
-0.246557696647     
-0.33650991646      
-0.359180612491     
-0.607226757337     
-0.548332444443     
-0.864763295419     
-0.713609389707     
-0.985272443485     
-0.480517834061     
0.396568448422      
0.613232187058      
0.584805722952      
0.464378460223      
0.295459126712      
0.240688891362      
0.180494196217      
0.153931957739      
0.0955226528654     
0.0875110162773     
-0.0283805006392    
-0.0218887605964    
-0.12286597514      
-0.129832421574     
-0.317985404794     
-0.388647492506     
-1.00693364022      
-1.49024922971      
-3.63243730627      
-6.65699056574      
-0.53027701993      
-0.0775907056101    
0.471073991299      
0.499550656508      
0.377475838645      
0.408770926988      
0.240715395301      
0.218753225502      
0.0864800978494     
0.025763014645      
-0.0997340744732    
-0.167589358224     
-0.324120632596     
-0.379816602613     
-0.586782877292     
-0.657549865444     
-0.998375524798     
-1.02707105522      
-1.40770021198      
-0.93799637504      
0.217553345018      
0.505676302278      
0.460562889063      
0.340638107125      
0.268905816439      
0.157722973824      
0.106269258471      
0.063434896706      
-0.000796481473962  
-0.0162034771526    
-0.0929542737862    
-0.104877112458     
-0.213063696617     
-0.23899884562      
-0.420894547952     
-0.451417431089     
-0.842497919986     
-1.07966502942      
-2.56887147179      
-4.32568053103      
-0.376896289461     
0.112219544374      
0.474367245069      
0.4820758484        
0.375139545307      
0.397881948331      
0.237393989823      
0.247734820344      
0.0926055060103     
0.0789852779964     
-0.0826761363975    
-0.122383669436     
-0.311225219521     
-0.373303358866     
-0.626842537607     
-0.696907166253     
-1.1197173606       
-1.13293769921      
-1.59981876002      
-1.25784489921      
0.172455367896      
0.412743025988      
0.458293753979      
0.373972845081      
0.232212543271      
0.143663793524      
0.0719820043483     
0.0138204437808     
-0.0351920226686    
-0.0673432184457    
-0.120406310698     
-0.137753693358     
-0.221786064612     
-0.22519486799      
-0.400188762508     
-0.387155091593     
-0.775068245074     
-0.952600950169     
-2.42766486273      
-3.88542887702      
-0.391427725783     
0.143732280197      
0.481681896002      
0.480988320917      
0.369148006883      
0.376941797949      
0.22865788449       
0.22837183529       
0.0831207831386     
0.0728300543325     
-0.0892839190607    
-0.114876965852     
-0.314806754537     
-0.356680488768     
-0.630021520311     
-0.683063126144     
-1.12038559075      
-1.16602833881      
-1.5892067165       
-1.41336514432      
0.188859378249      
0.355425021965      
0.462244920662      
0.402787838256      
0.22511543175       
0.168741787715      
0.0594705962578     
0.0265066441302     
-0.0501463605132    
-0.0611906220111    
-0.137573937196     
-0.131748936367     
-0.240703249799     
-0.220551657389     
-0.426797460424     
-0.388508178893     
-0.769529489202     
-0.895794710629     
-2.29469328703      
-3.52847919351      
-0.580536212397     
0.106939404717      
0.477777774804      
0.472312034528      
0.348690402841      
0.356291141867      
0.214202581278      
0.211605864807      
0.0714313753311     
0.0604439208014     
-0.0944381785871    
-0.121943608986     
-0.307248520706     
-0.356505803326     
-0.606565294504     
-0.676177593983     
-1.07841255585      
-1.16526593674      
-1.50944185118      
-1.44489484757      
0.20019087074       
0.325063190244      
0.453159189118      
0.40964501771       
0.216733451534      
0.18076695119       
0.0484029261571     
0.0364205456835     
-0.0698298191681    
-0.0543978472711    
-0.166948352255     
-0.127753314603     
-0.280511427516     
-0.22081669431      
-0.496842444926     
-0.401717931139     
-0.794854798234     
-0.858959187799     
-2.0969498929       
-3.23788721431      
-0.747727032471     
0.0858594152608     
0.463149076696      
0.458024647612      
0.33247727909       
0.355508917261      
0.205486015493      
0.218389759917      
0.0677220142447     
0.0715472470189     
-0.0910210124047    
-0.109634320282     
-0.292452688715     
-0.343536834987     
-0.578850390188     
-0.660736510711     
-1.03490587355      
-1.14423857244      
-1.4398104658       
-1.42369844427      
0.199278092896      
0.316361930933      
0.439563639782      
0.402513844726      
0.209000939351      
0.179378628298      
0.0428443550355     
0.0397682252693     
-0.0801374567186    
-0.0463939171934    
-0.183517762702     
-0.115745938666     
-0.303564512608     
-0.206536439669     
-0.538057313046     
-0.382569541051     
-0.813190914669     
-0.850021032102     
-2.00441068511      
-3.27975026523      
-0.727573378158     
0.104626466818      
0.447133173761      
0.443615218217      
0.328978146066      
0.365843586038      
0.205757915919      
0.237595485647      
0.071727741314      
0.0930508917814     
-0.0853678433477    
-0.090277539987     
-0.285510827564     
-0.328673079913     
-0.56895091275      
-0.649070227173     
-1.02245912807      
-1.12715899784      
-1.42747310871      
-1.39609378923      
0.191677553043      
0.322863437358      
0.432536977297      
0.394182038516      
0.207284330774      
0.174241277292      
0.044340459935      
0.0409791810026     
-0.0783150082222    
-0.0382902212147    
-0.179052094873     
-0.100485682596     
-0.294630545816     
-0.182809434074     
-0.518278087431     
-0.341510449625     
-0.796418828605     
-0.845942041252     
-2.01123708061      
-3.4631519985       
-0.544024017953     
0.136085220373      
0.438790403335      
0.435777075763      
0.330766375206      
0.376397660787      
0.21634963781       
0.255147392405      
0.0895258269257     
0.106285936248      
-0.0705758748378    
-0.0819185248691    
-0.279333129924     
-0.324978198304     
-0.560916174454     
-0.649561859812     
-1.00943368004      
-1.12715996881      
-1.39837223744      
-1.38758828691      
0.207741142027      
0.328205429389      
0.427328905741      
0.392223816204      
0.19818820359       
0.172186097305      
0.0296725835611     
0.0386067453171     
-0.0891990909835    
-0.0417488797494    
-0.178625406695     
-0.0999897981893    
-0.282473748275     
-0.169207727215     
-0.485652838975     
-0.314254954726     
-0.743920856249     
-0.808476591994     
-1.89185431863      
-3.35582693326      
0.116344125698      
0.323825733014      
0.41439336136       
0.444544654559      
0.337009863136      
0.417845697634      
0.249819181727      
0.285714208807      
0.145281378904      
0.128790813307      
-0.00260101014647   
-0.0578121516712    
-0.211152977554     
-0.298530537268     
-0.511246918444     
-0.628311903779     
-0.962292206565     
-1.10514672528      
-1.27613772196      
-1.34117400056      
0.280535703117      
0.341144582043      
0.402604759995      
0.384802208987      
0.1635041095        
0.165459775137      
0.00766094016381    
0.0304684340453     
-0.0813879172616    
-0.0527889349351    
-0.134600497432     
-0.105405078056     
-0.193814141883     
-0.149975049501     
-0.325888931497     
-0.239775561662     
-0.55726034105      
-0.693006174115     
-1.5270946838       
-2.90850899017      
0.441926211469      
0.480569927888      
0.390154971334      
0.493125104318      
0.316723862722      
0.345378778481      
0.200254253634      
0.214579441468      
0.0878554049642     
0.101709678031      
-0.0345455292965    
-0.0359758600436    
-0.194506283476     
-0.222416339941     
-0.430802616737     
-0.488906915055     
-0.880589636399     
-0.996931176749     
-1.06189736298      
-1.21584401407      
0.323339342275      
0.378180520345      
0.423380843772      
0.41789142904       
0.162884951375      
0.176640459523      
0.0258881553892     
0.0100075488052     
-0.0358650671453    
-0.0852343170938    
-0.0669396019251    
-0.146126349858     
-0.0870900029815    
-0.198663874501     
-0.114440228154     
-0.254322015962     
-0.294044205528     
-0.508720854812     
-0.862866155985     
-1.78712848832      
-0.208749595661     
-0.350081455184     
-0.300179171644     
-0.234045896884     
-0.245877401071     
-0.201913640521     
-0.22857537886      
-0.22005951565      
-0.241148555842     
-0.266469605418     
-0.289551990708     
-0.344131806431     
-0.387475314792     
-0.469361710117     
-0.564721983691     
-0.721815761939     
-0.956962011549     
-0.959148555341     
-1.06482234         
-1.3155478333       
-0.603973020898     
-0.903310086864     
-0.536922582641     
-0.719753627612     
-0.511812205951     
-0.625667428302     
-0.50837424652      
-0.585182963913     
-0.53795771956      
-0.590360676826     
-0.616058495906     
-0.640543628508     
-0.768903201295     
-0.769175537841     
-1.18601672843      
-0.933272004676     
-1.60269600566      
-1.80887102461      
-0.830470425966     
-1.19190719511      
-0.743592125283     
-0.932629868776     
-0.696615360282     
-0.793178463067     
-0.670690363633     
-0.714843643454     
-0.674937516513     
-0.679406551892     
-0.722271173192     
-0.679476204582     
-0.834721681364     
-0.722713984823     
-1.16220530159      
-0.430456666175     
-1.48775972614      
-2.11067572724      
-0.862227439912     
-1.27253911486      