# vtk DataFile Version 3.0
PyPan results file. Generated by PyPan, USU AeroLab (c) 2020.
ASCII
DATASET POLYDATA
POINTS 492 float
-4.75               -4.0                0.0                 
-4.75               4.0                 0.0                 
-4.7255282402       -4.00441503525      -0.00143460487016   
-4.7255282402       -4.00441503525      0.00143460487016    
-4.7255282402       -4.00272893906      -0.00375584419817   
-4.7255282402       -4.00272893906      0.00375584419817    
-4.7255282402       -4.0                -0.00464247865602   
-4.7255282402       -4.0                0.00464247865602    
-4.7255282402       4.0                 -0.00464247865602   
-4.7255282402       4.0                 0.00464247865602    
-4.7255282402       4.00272893906       -0.00375584419817   
-4.7255282402       4.00272893906       0.00375584419817    
-4.7255282402       4.00441503525       -0.00143460487016   
-4.7255282402       4.00441503525       0.00143460487016    
-4.6545085907       -4.01323318481      -0.00429976172745   
-4.6545085907       -4.01323318481      0.00429976172745    
-4.6545085907       -4.00817871094      -0.0112569229677    
-4.6545085907       -4.00817871094      0.0112569229677     
-4.6545085907       -4.0                -0.0139143215492    
-4.6545085907       -4.0                0.0139143215492     
-4.6545085907       4.0                 -0.0139143215492    
-4.6545085907       4.0                 0.0139143215492     
-4.6545085907       4.00817871094       -0.0112569229677    
-4.6545085907       4.00817871094       0.0112569229677     
-4.6545085907       4.01323318481       -0.00429976172745   
-4.6545085907       4.01323318481       0.00429976172745    
-4.65211296082      -3.90211296082      0.0                 
-4.65211296082      3.90211296082       0.0                 
-4.62764120102      -3.90211296082      -0.00464247865602   
-4.62764120102      -3.90211296082      0.00464247865602    
-4.62764120102      3.90211296082       -0.00464247865602   
-4.62764120102      3.90211296082       0.00464247865602    
-4.55662155151      -3.90211296082      -0.0139143215492    
-4.55662155151      -3.90211296082      0.0139143215492     
-4.55662155151      3.90211296082       -0.0139143215492    
-4.55662155151      3.90211296082       0.0139143215492     
-4.54389286041      -4.02558851242      -0.00831415317953   
-4.54389286041      -4.02558851242      0.00831415317953    
-4.54389286041      -4.01581430435      -0.0217667371035    
-4.54389286041      -4.01581430435      0.0217667371035     
-4.54389286041      -4.0                -0.0269051659852    
-4.54389286041      -4.0                0.0269051659852     
-4.54389286041      4.0                 -0.0269051659852    
-4.54389286041      4.0                 0.0269051659852     
-4.54389286041      4.01581430435       -0.0217667371035    
-4.54389286041      4.01581430435       0.0217667371035     
-4.54389286041      4.02558851242       -0.00831415317953   
-4.54389286041      4.02558851242       0.00831415317953    
-4.44600582123      -3.90211296082      -0.0269051659852    
-4.44600582123      -3.90211296082      0.0269051659852     
-4.44600582123      3.90211296082       -0.0269051659852    
-4.44600582123      3.90211296082       0.0269051659852     
-4.4045085907       -4.03891468048      -0.0126441745088    
-4.4045085907       -4.03891468048      0.0126441745088     
-4.4045085907       -4.02405071259      -0.0331028774381    
-4.4045085907       -4.02405071259      0.0331028774381     
-4.4045085907       -4.0                -0.0409174077213    
-4.4045085907       -4.0                0.0409174077213     
-4.4045085907       4.0                 -0.0409174077213    
-4.4045085907       4.0                 0.0409174077213     
-4.4045085907       4.02405071259       -0.0331028774381    
-4.4045085907       4.02405071259       0.0331028774381     
-4.4045085907       4.03891468048       -0.0126441745088    
-4.4045085907       4.03891468048       0.0126441745088     
-4.36803388596      -3.61803388596      0.0                 
-4.36803388596      3.61803388596       0.0                 
-4.34356212616      -3.61803388596      -0.00464247865602   
-4.34356212616      -3.61803388596      0.00464247865602    
-4.34356212616      3.61803388596       -0.00464247865602   
-4.34356212616      3.61803388596       0.00464247865602    
-4.30662155151      -3.90211296082      -0.0409174077213    
-4.30662155151      -3.90211296082      0.0409174077213     
-4.30662155151      3.90211296082       -0.0409174077213    
-4.30662155151      3.90211296082       0.0409174077213     
-4.27254247665      -3.61803388596      -0.0139143215492    
-4.27254247665      -3.61803388596      0.0139143215492     
-4.27254247665      3.61803388596       -0.0139143215492    
-4.27254247665      3.61803388596       0.0139143215492     
-4.25               -4.05034923553      -0.0163594372571    
-4.25               -4.05034923553      0.0163594372571     
-4.25               -4.03111743927      -0.0428295619786    
-4.25               -4.03111743927      0.0428295619786     
-4.25               -4.0                -0.0529402531683    
-4.25               -4.0                0.0529402531683     
-4.25               4.0                 -0.0529402531683    
-4.25               4.0                 0.0529402531683     
-4.25               4.03111743927       -0.0428295619786    
-4.25               4.03111743927       0.0428295619786     
-4.25               4.05034923553       -0.0163594372571    
-4.25               4.05034923553       0.0163594372571     
-4.16192674637      -3.61803388596      -0.0269051659852    
-4.16192674637      -3.61803388596      0.0269051659852     
-4.16192674637      3.61803388596       -0.0269051659852    
-4.16192674637      3.61803388596       0.0269051659852     
-4.15211296082      -3.90211296082      -0.0529402531683    
-4.15211296082      -3.90211296082      0.0529402531683     
-4.15211296082      3.90211296082       -0.0529402531683    
-4.15211296082      3.90211296082       0.0529402531683     
-4.0954914093       -4.05665874481      -0.0184096004814    
-4.0954914093       -4.05665874481      0.0184096004814     
-4.0954914093       -4.03501701355      -0.0481969565153    
-4.0954914093       -4.03501701355      0.0481969565153     
-4.0954914093       -4.0                -0.0595747157931    
-4.0954914093       -4.0                0.0595747157931     
-4.0954914093       4.0                 -0.0595747157931    
-4.0954914093       4.0                 0.0595747157931     
-4.0954914093       4.03501701355       -0.0481969565153    
-4.0954914093       4.03501701355       0.0481969565153     
-4.0954914093       4.05665874481       -0.0184096004814    
-4.0954914093       4.05665874481       0.0184096004814     
-4.02254247665      -3.61803388596      -0.0409174077213    
-4.02254247665      -3.61803388596      0.0409174077213     
-4.02254247665      3.61803388596       -0.0409174077213    
-4.02254247665      3.61803388596       0.0409174077213     
-3.99760460854      -3.90211296082      -0.0595747157931    
-3.99760460854      -3.90211296082      0.0595747157931     
-3.99760460854      3.90211296082       -0.0595747157931    
-3.99760460854      3.90211296082       0.0595747157931     
-3.95610737801      -4.05488920212      -0.0178346466273    
-3.95610737801      -4.05488920212      0.0178346466273     
-3.95610737801      -4.03392362595      -0.046691711992     
-3.95610737801      -4.03392362595      0.046691711992      
-3.95610737801      -4.0                -0.0577141307294    
-3.95610737801      -4.0                0.0577141307294     
-3.95610737801      4.0                 -0.0577141307294    
-3.95610737801      4.0                 0.0577141307294     
-3.95610737801      4.03392362595       -0.046691711992     
-3.95610737801      4.03392362595       0.046691711992      
-3.95610737801      4.05488920212       -0.0178346466273    
-3.95610737801      4.05488920212       0.0178346466273     
-3.92557048798      -3.17557048798      0.0                 
-3.92557048798      3.17557048798       0.0                 
-3.90109872818      -3.17557048798      -0.00464247865602   
-3.90109872818      -3.17557048798      0.00464247865602    
-3.90109872818      3.17557048798       -0.00464247865602   
-3.90109872818      3.17557048798       0.00464247865602    
-3.86803388596      -3.61803388596      -0.0529402531683    
-3.86803388596      -3.61803388596      0.0529402531683     
-3.86803388596      3.61803388596       -0.0529402531683    
-3.86803388596      3.61803388596       0.0529402531683     
-3.85822033882      -3.90211296082      -0.0577141307294    
-3.85822033882      -3.90211296082      0.0577141307294     
-3.85822033882      3.90211296082       -0.0577141307294    
-3.85822033882      3.90211296082       0.0577141307294     
-3.8454914093       -4.0437951088       -0.0142299029976    
-3.8454914093       -4.0437951088       0.0142299029976     
-3.8454914093       -4.02706670761      -0.037254370749     
-3.8454914093       -4.02706670761      0.037254370749      
-3.8454914093       -4.0                -0.0460489317775    
-3.8454914093       -4.0                0.0460489317775     
-3.8454914093       4.0                 -0.0460489317775    
-3.8454914093       4.0                 0.0460489317775     
-3.8454914093       4.02706670761       -0.037254370749     
-3.8454914093       4.02706670761       0.037254370749      
-3.8454914093       4.0437951088        -0.0142299029976    
-3.8454914093       4.0437951088        0.0142299029976     
-3.83007907867      -3.17557048798      -0.0139143215492    
-3.83007907867      -3.17557048798      0.0139143215492     
-3.83007907867      3.17557048798       -0.0139143215492    
-3.83007907867      3.17557048798       0.0139143215492     
-3.7744717598       -4.0246257782       -0.00800147373229   
[...]
CELL_DATA 980
SCALARS pressure_coefficient float 1
LOOKUP_TABLE default
-1.51364951885      
-0.763581681604     
0.594930646585      
0.669539154529      
0.484667018263      
0.358962470985      
0.236192127706      
0.0762293521918     
0.0066383923333     
-0.153213259007     
-0.157631787677     
-0.249074646725     
-0.353255061287     
-0.382739581028     
-0.65984719932      
-0.604959285899     
-0.989307463782     
-0.827398592143     
-1.26029001418      
-0.685500498885     
0.291577919657      
0.601913795787      
0.63954842628       
0.534725922703      
0.358990832668      
0.30615149746       
0.228291477849      
0.202563835253      
0.127674538756      
0.118536617747      
-0.0108474395343    
-0.00595854383842   
-0.128401591161     
-0.138654319973     
-0.368979813898     
-0.455648444603     
-1.20457898365      
-1.79659184558      
-4.51501781827      
-8.42614676342      
-0.986895150725     
-0.38352883767      
0.484210736868      
0.510581346751      
0.421354969202      
0.452560876263      
0.283418183674      
0.259112925864      
0.118595147456      
0.0507107086506     
-0.0846202439235    
-0.162143590074     
-0.334846576348     
-0.400340493253     
-0.641606434218     
-0.72041367004      
-1.14409141506      
-1.17958270672      
-1.76985210015      
-1.24381807074      
0.0575851515043     
0.459588373578      
0.507175784002      
0.41445093943       
0.327387018012      
0.223791950823      
0.151957905454      
0.111393377624      
0.0265732444166     
0.0126468521983     
-0.0867063582388    
-0.0986060450058    
-0.233548037932     
-0.26398160476      
-0.484656466225     
-0.526778411358     
-0.997688466015     
-1.28364797754      
-3.17315339786      
-5.34913435993      
-0.779489269365     
-0.113500871591     
0.489131468828      
0.498085074576      
0.415578098237      
0.436013980093      
0.278160272215      
0.287597617238      
0.125611293269      
0.109666898089      
-0.0638865849669    
-0.108601755304     
-0.317453655236     
-0.387166061706     
-0.67964462719      
-0.760859443318     
-1.27350754124      
-1.30506600847      
-1.99308142665      
-1.6355949463       
-0.00817415381951   
0.313123520054      
0.501904380341      
0.437131333076      
0.288603569919      
0.204775695001      
0.113513616367      
0.0557452833385     
-0.01142551536      
-0.0457554136092    
-0.115711257845     
-0.136808715025     
-0.240489333257     
-0.24912679123      
-0.457590616588     
-0.452303310184     
-0.914250948532     
-1.12521896707      
-2.97798889259      
-4.75100990228      
-0.794274144079     
-0.069034242501     
0.497585681762      
0.501335349173      
0.410391766333      
0.416370246652      
0.269203670882      
0.267607741459      
0.115845966745      
0.103706760465      
-0.0703687279972    
-0.098981140946     
-0.32017883081      
-0.366988435763     
-0.680704438139     
-0.743366554385     
-1.27135157327      
-1.33839281262      
-1.97719228256      
-1.80990693156      
0.0114196533636     
0.231383410725      
0.50703483744       
0.459426530109      
0.282022856286      
0.22682632939       
0.100994203541      
0.0667678467086     
-0.0266103006181    
-0.0403869973083    
-0.133062880274     
-0.130712106308     
-0.259601399549     
-0.243471445595     
-0.484857307168     
-0.452158054195     
-0.905781784531     
-1.05795808247      
-2.82016558688      
-4.32382496672      
-1.02403431977      
-0.113506346662     
0.491598984232      
0.493710492097      
0.391307350395      
0.396734386511      
0.254811540252      
0.250691270617      
0.103983033982      
0.0910672245525     
-0.0756279798273    
-0.106006042381     
-0.312022988155     
-0.366121798655     
-0.655038991601     
-0.734629772273     
-1.22446792857      
-1.33448870711      
-1.88473513581      
-1.83955498215      
0.0285320006005     
0.193851339837      
0.498557521916      
0.463007198491      
0.273702414982      
0.237338718559      
0.0900649351786     
0.0761679654803     
-0.0465264723702    
-0.0335299725721    
-0.163183582272     
-0.126347220104     
-0.300843361729     
-0.243213265995     
-0.558519213018     
-0.465352618318     
-0.931736794106     
-1.01575294902      
-2.59447258238      
-3.98874209195      
-1.22033243258      
-0.133996083115     
0.473630090484      
0.476699726602      
0.374932363041      
0.394033647935      
0.245749693432      
0.256709224554      
0.10015258499       
0.102116823822      
-0.0720030757916    
-0.0932441030633    
-0.296344902747     
-0.352200816932     
-0.625145118767     
-0.717394951072     
-1.17631577717      
-1.30978194426      
-1.80412202385      
-1.81161728086      
0.0317815579869     
0.186752447161      
0.484632993488      
0.454862356336      
0.265477479991      
0.235139639924      
0.0843794103988     
0.079122833938      
-0.0568879940825    
-0.0254400808706    
-0.179935821076     
-0.113706030673     
-0.324243567496     
-0.227619133348     
-0.600857421876     
-0.443613938105     
-0.949466191822     
-1.00421746336      
-2.48700395649      
-4.03290248158      
-1.17806227529      
-0.0997010387058    
0.456838130486      
0.459326811033      
0.370358042819      
0.401466594725      
0.245752557397      
0.275146019747      
0.104403961914      
0.123775375411      
-0.0657408799037    
-0.073264480261     
-0.288616112229     
-0.336409823942     
-0.614217961324     
-0.704395864034     
-1.16193724776      
-1.28984887165      
-1.78795405699      
-1.7773535954       
0.0256380924243     
0.198679077719      
0.476799527676      
0.446908410432      
0.263042781085      
0.22964622895       
0.0855329646013     
0.079953233032      
-0.0549476825911    
-0.0173778557882    
-0.174801147524     
-0.0978363278651    
-0.31362427488      
-0.202163665141     
-0.576903714858     
-0.398129363542     
-0.927195467209     
-0.997825182085     
-2.48862078413      
-4.23757668986      
-0.908199372625     
-0.0411022681243    
0.453774573378      
0.452612035194      
0.372689248802      
0.411787391127      
0.257040260102      
0.293200321308      
0.123563564228      
0.137738098151      
-0.0489505803043    
-0.0642390362273    
-0.280284739661     
-0.332041351633     
-0.604259482223     
-0.703992244013     
-1.14573340567      
-1.28791431341      
-1.75009487387      
-1.76364982511      
0.0497145661575     
0.207432763528      
0.472556187463      
0.444866574331      
0.253231966143      
0.226829202796      
0.069839481596      
0.0766417923991     
-0.066703271946     
-0.0216898188687    
-0.174241583047     
-0.0977741214564    
-0.298835720969     
-0.187704714356     
-0.535630047909     
-0.366738081022     
-0.859388527618     
-0.953058086616     
-2.33110340447      
-4.10364206089      
-0.0420966919495    
0.230467184673      
0.447627899997      
0.471302484055      
0.379816339399      
0.455374473989      
0.289926040076      
0.324963333982      
0.17940847025       
0.161299184191      
0.0211037468698     
-0.0384792774936    
-0.206578263184     
-0.302938911123     
-0.545686179576     
-0.678708559822     
-1.0866324579       
-1.2590832424       
-1.5986237435       
-1.70120514902      
0.150289565123      
0.227732613433      
0.452786240715      
0.436448112562      
0.215906228141      
0.216862615432      
0.0421193963172     
0.0645094636694     
-0.065182246754     
-0.0368828197258    
-0.133685420263     
-0.106571784813     
-0.207741470879     
-0.169478398416     
-0.361967821868     
-0.28665409138      
-0.639022407214     
-0.814699904873     
-1.84489095402      
-3.5168854539       
0.437172406408      
0.464969490646      
0.432914080217      
0.534910022156      
0.360988813374      
0.391808137235      
0.238107497851      
0.253574682752      
0.117126252602      
0.132093984968      
-0.0155862062892    
-0.0170708220048    
-0.191008660413     
-0.223079844229     
-0.456161910461     
-0.528202203674     
-0.985085174557     
-1.1326706082       
-1.33342474308      
-1.53722595292      
0.21065284991       
0.276116773707      
0.469192024357      
0.460319048239      
0.201007692522      
0.215819076755      
0.0474074846259     
0.0343271912532     
-0.0273535500139    
-0.0742393322454    
-0.068050716778     
-0.146597345677     
-0.0966393645719    
-0.211588538499     
-0.136432043031     
-0.289121870886     
-0.343567544338     
-0.597473711624     
-1.01772709967      
-2.12869149594      
-0.275328885502     
-0.422607693684     
-0.347096012318     
-0.283917801915     
-0.283385526891     
-0.241534409603     
-0.262826268779     
-0.25612568687      
-0.273984004522     
-0.303220116735     
-0.323667718593     
-0.386182919454     
-0.427718014094     
-0.525429535607     
-0.621394274873     
-0.819288294803     
-1.07399868472      
-1.21083866306      
-1.3180975715       
-1.56656746629      
-0.77427170302      
-1.08480042647      
-0.677822396686     
-0.86796709852      
-0.635460469215     
-0.754493030476     
-0.621608072329     
-0.702541504889     
-0.647028502447     
-0.704633071848     
-0.729654549968     
-0.763235310919     
-0.902257429867     
-0.922809869276     
-1.3858781298       
-1.22884692764      
-1.97800617571      
-2.1562241795       
-1.04616139293      
-1.42872051381      
-0.928443073315     
-1.12332034637      
-0.860983016539     
-0.957448675792     
-0.821254631391     
-0.862353189176     
-0.817889359997     
-0.818765234253     
-0.8662044556       
-0.821628305127     
-0.994543398534     
-0.885946455763     
-1.37416368836      
-0.689995254771     
-1.81263118031      
-2.48759363435      
-1.05932783399      
-1.50167977251      
-0.929211827539     
-1.11844944619      
-0.848841497848     
-0.917090465346     
-0.795432562447     
-0.796893828149     
-0.772884262076     
-0.725289611775     
-0.791585583026     
-0.687248525561     
-0.868855185404     
-0.661518720675     
-1.07928186255      
0.128917680554      
-0.817197321588     
-2.13061801631      
-0.52938242544      
-1.0600058066       
-0.421041103345     
-0.687269467941     
-0.394148191251     
-0.507318580078     
-0.373362018828     
-0.385677784548     
-0.344824720441     
-0.275003066069     
-0.296060728009     
-0.125380938642     
-0.18812005792      
0.188235841699      
0.0981807109713     
0.850342616361      
-1.51365173987      
-0.763583495589     
0.59493081205       
0.669540328467      
0.484667307154      
0.358962753054      
0.236192088312      
0.0762293184914     
0.0066382554634     
-0.153213365866     
-0.157631738831     
-0.249074501797     
-0.353255123975     
-0.38273942398      
-0.659847450321     
-0.604959110644     
-0.989307191249     
-0.827398361008     
-1.26028960702      
-0.685500397862     
0.291577635061      
0.60191349118       
0.639548557361      
0.5347260174        
0.358990815048      
0.306151592454      
0.228291491663      
0.202563999613      
0.127674503461      
0.118536885148      
-0.0108476367451    
-0.00595834631085   
-0.128401638331     
-0.138653960218     
-0.368979510034     
-0.455647246607     
-1.20457876297      
-1.79658837824      
-4.51500933568      
-8.42612573994      
-0.986893939032     
-0.383529173132     
0.484210499422      
0.510581049185      
0.421354905593      
0.452561129159      
0.283418216477      
0.259113380597      
0.118595317717      
0.050711171498      
-0.0846199517096    
-0.162143196458     
-0.334846443725     
-0.40034028272      
-0.641606121136     
-0.720413581181     
-1.14409105604      
-1.17958246718      
-1.76984926289      
-1.24381691422      
0.057584614574      
0.459588242139      
0.507175626129      
0.414450693919      
0.327387148446      
0.223791880038      
0.151957984184      
0.111393409482      
0.0265732460848     
0.0126468337125     
-0.0867062889691    
-0.098605902028     
-0.233547911523     
-0.263981281576     
-0.484656299386     
-0.526777799131     
-0.997689361251     
-1.28364902094      
-3.1731462385       
-5.34913297558      
-0.779485990685     
-0.113499579057     
0.489131335825      
0.49808502099       
0.41557824874       
0.4360143886        
0.278160218835      
0.287597868788      
0.125611399616      
0.109667076872      
-0.0638863251748    
-0.108601359542     
-0.317453187444     
-0.387165793525     
-0.679643934247     
-0.760859345011     
-1.27350742329      
-1.30506622557      
-1.99308367987      
-1.63559401077      
-0.00817391694018   
0.313123800284      
0.501904199823      
0.437131007833      
0.288603624183      
0.204775410193      
0.113513706404      
0.0557451136071     
-0.0114255572743    
-0.0457555675063    
-0.115711259461     
-0.13680864258      
-0.240489221519     
-0.249126562065     
-0.457590079716     
-0.452302871758     
-0.91425251444      
-1.12521873098      
-2.97799234363      
-4.75101302451      
-0.794268476211     
-0.0690309657636    
0.497585635256      
0.501335250257      
0.410391687956      
0.416370594172      
0.269203695469      
0.267607867463      
0.115845979703      
0.103706888604      
-0.0703684629555    
-0.0989807944686    
-0.320178716852     
-0.366988068989     
-0.680704476285     
-0.743366060668     
-1.2713515219       
-1.33839213149      
-1.97718711474      
-1.80990318276      
0.0114184241564     
0.231384051714      
0.507034797185      
0.45942632526       
0.282022854562      
0.226826119355      
0.100994106649      
0.0667675654594     
-0.0266104197356    
-0.0403872689211    
-0.133062767048     
-0.130712117792     
-0.25960136816      
-0.243471353946     
-0.484856360993     
-0.452157682184     
-0.905781295713     
-1.05795787006      
-2.82018481814      
-4.32383467545      
-1.02403348373      
-0.11350480143      
0.491598923642      
0.493710484217      
0.391307422987      
0.396733911492      
0.254811102898      
0.250691003656      
0.103982785263      
0.0910669331459     
-0.0756279781492    
-0.10600594853      
-0.312023057194     
-0.366121810864     
-0.655039192714     
-0.734629829444     
-1.22446705432      
-1.33448773172      
-1.88473388494      
-1.83955422702      
0.0285326742227     
0.193851243534      
0.498557393787      
0.463007309156      
0.273702209505      
0.237338763305      
0.0900646191987     
0.0761678979917     
-0.0465270343166    
-0.0335302280418    
-0.163183948816     
-0.126347246676     
-0.300843529152     
-0.243213407035     
-0.558521050082     
-0.465352763834     
-0.931735239248     
-1.01575219748      
-2.59446792543      
-3.98873640423      
-1.22033555509      
-0.133994529256     
0.473629784341      
0.476699192464      
0.374930300703      
0.394032862405      
0.245749032864      
0.256708848714      
0.100152184923      
0.102116627391      
-0.0720030611384    
-0.0932439410762    
-0.296344831481     
-0.352200706668     
-0.62514455743      
-0.717395348639     
-1.17631679989      
-1.30978216938      
-1.80412209705      
-1.81161821084      
0.0317822508925     
0.18675254053       
0.48463268183       
0.454862188801      
0.265476956218      
0.23513971998       
0.0843790716832     
0.0791227855727     
-0.0568887718521    
-0.0254403554247    
-0.179937486965     
-0.113706185079     
-0.324244652894     
-0.227618908609     
-0.600861125952     
-0.443613666964     
-0.949474676758     
-1.00421692665      
-2.48699268327      
-4.03290098391      
-1.17806947559      
-0.0996974342019    
0.456837781375      
0.459325948607      
0.37035766607       
0.401467453755      
0.245752660154      
0.275146818993      
0.104404164902      
0.123775888148      
-0.0657402721395    
-0.0732637420073    
-0.288615571187     
-0.336409568997     
-0.614218748429     
-0.704395910214     
-1.16193451873      
-1.28985261783      
-1.78798009124      
-1.77737582098      
0.0256342275883     
0.198678422627      
0.476799199228      
0.446908123234      
0.263042504614      
0.229645810218      
0.0855329173009     
0.0799531308668     
-0.054947994899     
-0.017377913324     
-0.174800722248     
-0.0978355103685    
-0.313624754995     
-0.202162707673     
-0.576901490332     
-0.398126146463     
-0.92719764878      
-0.997824910623     
-2.48866779219      
-4.23760294555      
-0.908213153998     
-0.041107732369     
0.453773951601      
0.452611954811      
0.372688827718      
0.411787464955      
0.257039317867      
0.293199548938      
0.123563133383      
0.137737916328      
-0.0489500454776    
-0.0642389236359    
-0.280283710758     
-0.332041029151     
-0.60425979508      
-0.703992628295     
-1.14573461944      
-1.28791569311      
-1.75008020447      
-1.76363592104      
0.0497132526621     
0.207433022964      
0.472555890248      
0.444866236609      
0.253231755955      
0.226828836163      
0.069838755129      
0.0766412466974     
-0.0667046147667    
-0.0216904184051    
-0.174243266948     
-0.0977745586014    
-0.298837088327     
-0.187704401881     
-0.535631777345     
-0.366739086689     
-0.859385693296     
-0.953056130201     
-2.33108219755      
-4.10361900792      
-0.0420974375754    
0.230464267927      
0.447627733935      
0.471303437067      
0.379816481031      
0.45537457109       
0.289924907751      
0.32496317463       
0.179408239571      
0.161299820222      
0.0211045598441     
-0.0384780735075    
-0.206576592693     
-0.302937561189     
-0.545686286927     
-0.678708646549     
-1.0866307237       
-1.25908155078      
-1.59860961997      
-1.70119099755      
0.150287426319      
0.227732730732      
0.452786163526      
0.436448018381      
0.215906846459      
0.216862743549      
0.0421189792168     
0.0645090357345     
-0.065183371862     
-0.0368838357477    
-0.133686610372     
-0.106571648777     
-0.20774097039      
-0.169476941422     
-0.36196660056      
-0.28665287275      
-0.639020354867     
-0.814698954707     
-1.84487157672      
-3.51686840014      
0.437171848189      
0.464966059897      
0.432914345695      
0.534912620164      
0.360989221765      
0.391808441239      
0.238107046376      
0.253573893914      
0.117125126616      
0.132093834523      
-0.0155859678647    
-0.017070608881     
-0.191006652924     
-0.223079340521     
-0.4561606922       
-0.528200320679     
-0.985076745139     
-1.13266518693      
-1.33342108807      
-1.53722396337      
0.210651180845      
0.27611733076       
0.469193044641      
0.460318637144      
0.201009378222      
0.215819687098      
0.0474066304473     
0.0343260040668     
-0.0273541147437    
-0.0742399636912    
-0.0680499810857    
-0.146597297448     
-0.0966394364895    
-0.211588428374     
-0.136434388577     
-0.28912281388      
-0.343565721599     
-0.597467598073     
-1.01770214942      
-2.12868158169      
-0.275264804493     
-0.422440513878     
-0.34708552176      
-0.283932786528     
-0.283376208714     
-0.241516160824     
-0.262823851719     
-0.256125846519     
-0.27398543862      
-0.30321610159      
-0.323664801207     
-0.386173860686     
-0.427713319728     
-0.525428963196     
-0.621391988763     
-0.819295516801     
-1.07399970817      
-1.21087187376      
-1.31818618485      
-1.56600376056      
-0.774271596151     
-1.08480555919      
-0.677823665365     
-0.86791122874      
-0.635446171779     
-0.754472957248     
-0.621605627451     
-0.702537668647     
-0.647030015012     
-0.704625917997     
-0.729649199352     
-0.763218069821     
-0.902252217521     
-0.922811624935     
-1.38586250343      
-1.22885683047      
-1.97812162094      
-2.15630650969      
-1.04616040143      
-1.42877378642      
-0.9284696746       
-1.123329982        
-0.860987418664     
-0.957451571228     
-0.821254213588     
-0.862359287585     
-0.817891552298     
-0.818765807736     
-0.866206345775     
-0.821630150824     
-0.994545229275     
-0.885965205847     
-1.37417113348      
-0.690037789808     
-1.81254437054      
-2.48722180325      
-1.05934299073      
-1.50168660408      