# vtk DataFile Version 3.0
PyPan results file. Generated by PyPan, USU AeroLab (c) 2020.
ASCII
DATASET POLYDATA
POINTS 492 float
-4.75               -4.0                0.0                 
-4.75               4.0                 0.0                 
-4.7255282402       -4.00441503525      -0.00143460487016   
-4.7255282402       -4.00441503525      0.00143460487016    
-4.7255282402       -4.00272893906      -0.00375584419817   
-4.7255282402       -4.00272893906      0.00375584419817    
-4.7255282402       -4.0                -0.00464247865602   
-4.7255282402       -4.0                0.00464247865602    
-4.7255282402       4.0                 -0.00464247865602   
-4.7255282402       4.0                 0.00464247865602    
-4.7255282402       4.00272893906       -0.00375584419817   
-4.7255282402       4.00272893906       0.00375584419817    
-4.7255282402       4.00441503525       -0.00143460487016   
-4.7255282402       4.00441503525       0.00143460487016    
-4.6545085907       -4.01323318481      -0.00429976172745   
-4.6545085907       -4.01323318481      0.00429976172745    
-4.6545085907       -4.00817871094      -0.0112569229677    
-4.6545085907       -4.00817871094      0.0112569229677     
-4.6545085907       -4.0                -0.0139143215492    
-4.6545085907       -4.0                0.0139143215492     
-4.6545085907       4.0                 -0.0139143215492    
-4.6545085907       4.0                 0.0139143215492     
-4.6545085907       4.00817871094       -0.0112569229677    
-4.6545085907       4.00817871094       0.0112569229677     
-4.6545085907       4.01323318481       -0.00429976172745   
-4.6545085907       4.01323318481       0.00429976172745    
-4.65211296082      -3.90211296082      0.0                 
-4.65211296082      3.90211296082       0.0                 
-4.62764120102      -3.90211296082      -0.00464247865602   
-4.62764120102      -3.90211296082      0.00464247865602    
-4.62764120102      3.90211296082       -0.00464247865602   
-4.62764120102      3.90211296082       0.00464247865602    
-4.55662155151      -3.90211296082      -0.0139143215492    
-4.55662155151      -3.90211296082      0.0139143215492     
-4.55662155151      3.90211296082       -0.0139143215492    
-4.55662155151      3.90211296082       0.0139143215492     
-4.54389286041      -4.02558851242      -0.00831415317953   
-4.54389286041      -4.02558851242      0.00831415317953    
-4.54389286041      -4.01581430435      -0.0217667371035    
-4.54389286041      -4.01581430435      0.0217667371035     
-4.54389286041      -4.0                -0.0269051659852    
-4.54389286041      -4.0                0.0269051659852     
-4.54389286041      4.0                 -0.0269051659852    
-4.54389286041      4.0                 0.0269051659852     
-4.54389286041      4.01581430435       -0.0217667371035    
-4.54389286041      4.01581430435       0.0217667371035     
-4.54389286041      4.02558851242       -0.00831415317953   
-4.54389286041      4.02558851242       0.00831415317953    
-4.44600582123      -3.90211296082      -0.0269051659852    
-4.44600582123      -3.90211296082      0.0269051659852     
-4.44600582123      3.90211296082       -0.0269051659852    
-4.44600582123      3.90211296082       0.0269051659852     
-4.4045085907       -4.03891468048      -0.0126441745088    
-4.4045085907       -4.03891468048      0.0126441745088     
-4.4045085907       -4.02405071259      -0.0331028774381    
-4.4045085907       -4.02405071259      0.0331028774381     
-4.4045085907       -4.0                -0.0409174077213    
-4.4045085907       -4.0                0.0409174077213     
-4.4045085907       4.0                 -0.0409174077213    
-4.4045085907       4.0                 0.0409174077213     
-4.4045085907       4.02405071259       -0.0331028774381    
-4.4045085907       4.02405071259       0.0331028774381     
-4.4045085907       4.03891468048       -0.0126441745088    
-4.4045085907       4.03891468048       0.0126441745088     
-4.36803388596      -3.61803388596      0.0                 
-4.36803388596      3.61803388596       0.0                 
-4.34356212616      -3.61803388596      -0.00464247865602   
-4.34356212616      -3.61803388596      0.00464247865602    
-4.34356212616      3.61803388596       -0.00464247865602   
-4.34356212616      3.61803388596       0.00464247865602    
-4.30662155151      -3.90211296082      -0.0409174077213    
-4.30662155151      -3.90211296082      0.0409174077213     
-4.30662155151      3.90211296082       -0.0409174077213    
-4.30662155151      3.90211296082       0.0409174077213     
-4.27254247665      -3.61803388596      -0.0139143215492    
-4.27254247665      -3.61803388596      0.0139143215492     
-4.27254247665      3.61803388596       -0.0139143215492    
-4.27254247665      3.61803388596       0.0139143215492     
-4.25               -4.05034923553      -0.0163594372571    
-4.25               -4.05034923553      0.0163594372571     
-4.25               -4.03111743927      -0.0428295619786    
-4.25               -4.03111743927      0.0428295619786     
-4.25               -4.0                -0.0529402531683    
-4.25               -4.0                0.0529402531683     
-4.25               4.0                 -0.0529402531683    
-4.25               4.0                 0.0529402531683     
-4.25               4.03111743927       -0.0428295619786    
-4.25               4.03111743927       0.0428295619786     
-4.25               4.05034923553       -0.0163594372571    
-4.25               4.05034923553       0.0163594372571     
-4.16192674637      -3.61803388596      -0.0269051659852    
-4.16192674637      -3.61803388596      0.0269051659852     
-4.16192674637      3.61803388596       -0.0269051659852    
-4.16192674637      3.61803388596       0.0269051659852     
-4.15211296082      -3.90211296082      -0.0529402531683    
-4.15211296082      -3.90211296082      0.0529402531683     
-4.15211296082      3.90211296082       -0.0529402531683    
-4.15211296082      3.90211296082       0.0529402531683     
-4.0954914093       -4.05665874481      -0.0184096004814    
-4.0954914093       -4.05665874481      0.0184096004814     
-4.0954914093       -4.03501701355      -0.0481969565153    
-4.0954914093       -4.03501701355      0.0481969565153     
-4.0954914093       -4.0                -0.0595747157931    
-4.0954914093       -4.0                0.0595747157931     
-4.0954914093       4.0                 -0.0595747157931    
-4.0954914093       4.0                 0.0595747157931     
-4.0954914093       4.03501701355       -0.0481969565153    
-4.0954914093       4.03501701355       0.0481969565153     
-4.0954914093       4.05665874481       -0.0184096004814    
-4.0954914093       4.05665874481       0.0184096004814     
-4.02254247665      -3.61803388596      -0.0409174077213    
-4.02254247665      -3.61803388596      0.0409174077213     
-4.02254247665      3.61803388596       -0.0409174077213    
-4.02254247665      3.61803388596       0.0409174077213     
-3.99760460854      -3.90211296082      -0.0595747157931    
-3.99760460854      -3.90211296082      0.0595747157931     
-3.99760460854      3.90211296082       -0.0595747157931    
-3.99760460854      3.90211296082       0.0595747157931     
-3.95610737801      -4.05488920212      -0.0178346466273    
-3.95610737801      -4.05488920212      0.0178346466273     
-3.95610737801      -4.03392362595      -0.046691711992     
-3.95610737801      -4.03392362595      0.046691711992      
-3.95610737801      -4.0                -0.0577141307294    
-3.95610737801      -4.0                0.0577141307294     
-3.95610737801      4.0                 -0.0577141307294    
-3.95610737801      4.0                 0.0577141307294     
-3.95610737801      4.03392362595       -0.046691711992     
-3.95610737801      4.03392362595       0.046691711992      
-3.95610737801      4.05488920212       -0.0178346466273    
-3.95610737801      4.05488920212       0.0178346466273     
-3.92557048798      -3.17557048798      0.0                 
-3.92557048798      3.17557048798       0.0                 
-3.90109872818      -3.17557048798      -0.00464247865602   
-3.90109872818      -3.17557048798      0.00464247865602    
-3.90109872818      3.17557048798       -0.00464247865602   
-3.90109872818      3.17557048798       0.00464247865602    
-3.86803388596      -3.61803388596      -0.0529402531683    
-3.86803388596      -3.61803388596      0.0529402531683     
-3.86803388596      3.61803388596       -0.0529402531683    
-3.86803388596      3.61803388596       0.0529402531683     
-3.85822033882      -3.90211296082      -0.0577141307294    
-3.85822033882      -3.90211296082      0.0577141307294     
-3.85822033882      3.90211296082       -0.0577141307294    
-3.85822033882      3.90211296082       0.0577141307294     
-3.8454914093       -4.0437951088       -0.0142299029976    
-3.8454914093       -4.0437951088       0.0142299029976     
-3.8454914093       -4.02706670761      -0.037254370749     
-3.8454914093       -4.02706670761      0.037254370749      
-3.8454914093       -4.0                -0.0460489317775    
-3.8454914093       -4.0                0.0460489317775     
-3.8454914093       4.0                 -0.0460489317775    
-3.8454914093       4.0                 0.0460489317775     
-3.8454914093       4.02706670761       -0.037254370749     
-3.8454914093       4.02706670761       0.037254370749      
-3.8454914093       4.0437951088        -0.0142299029976    
-3.8454914093       4.0437951088        0.0142299029976     
-3.83007907867      -3.17557048798      -0.0139143215492    
-3.83007907867      -3.17557048798      0.0139143215492     
-3.83007907867      3.17557048798       -0.0139143215492    
-3.83007907867      3.17557048798       0.0139143215492     
-3.7744717598       -4.0246257782       -0.00800147373229   
[...]
CELL_DATA 980
SCALARS pressure_coefficient float 1
LOOKUP_TABLE default
-2.25251342367      
-1.3106259849       
0.609532248024      
0.709208031209      
0.541314588183      
0.410610520119      
0.279964052805      
0.109247458779      
0.0323791406619     
-0.137659516608     
-0.149805806157     
-0.248544273517     
-0.366849074118     
-0.403132136823     
-0.709467263132     
-0.658815734486     
-1.11388738233      
-0.941446848453     
-1.55330424856      
-0.906104192705     
0.15881077481       
0.570483820243      
0.685975441516      
0.598972280524      
0.42039284038       
0.369990913775      
0.27638399453       
0.251592202963      
0.161333189163      
0.151138905317      
0.00898370464071    
0.0122851596163     
-0.131190702179     
-0.144713958396     
-0.417616263943     
-0.520649628909     
-1.40706315952      
-2.11479265235      
-5.46774761696      
-10.3635142506      
-1.52662905745      
-0.754663708048     
0.484339804062      
0.508453264159      
0.461620480142      
0.4928843257        
0.325941129128      
0.299853576961      
0.152199865769      
0.0776229620138     
-0.0670091990806    
-0.153947778482     
-0.342580157762     
-0.417872952485     
-0.694073274989     
-0.781060480124     
-1.29200126586      
-1.3346322983       
-2.15827959751      
-1.57493927304      
-0.140513542311     
0.382959364756      
0.542109426761      
0.479397869434      
0.383043640904      
0.287785124118      
0.198050951421      
0.15991292553       
0.0558640714928     
0.0434166420775     
-0.0778495610928    
-0.0896835252545    
-0.251441985644     
-0.28634152536      
-0.547143898312     
-0.601369121089     
-1.15684463527      
-1.49464590392      
-3.82219922607      
-6.45570503361      
-1.25738382588      
-0.392365535919     
0.491876879823      
0.503429064714      
0.452374834596      
0.470642526199      
0.31858746583       
0.327282087334      
0.159945202682      
0.141888558059      
-0.04269858623      
-0.0922559142665    
-0.320703947684     
-0.398055384643     
-0.730057051522     
-0.822737765975     
-1.4295957458       
-1.48103739158      
-2.41413593242      
-2.04496343786      
-0.228962076251     
0.176385223099      
0.5334677521        
0.490160944864      
0.342479256623      
0.263985604892      
0.155822156208      
0.0987451117987     
0.0144828426546     
-0.0218677242764    
-0.108369908748     
-0.133186588922     
-0.256657626887     
-0.270678696066     
-0.513640929254     
-0.516655695977     
-1.0565955217       
-1.3029121394       
-3.56678046048      
-5.68091775506      
-1.27074805403      
-0.332514777096     
0.501784350621      
0.511805918086      
0.448170351873      
0.452714564824      
0.309485857652      
0.306794913524      
0.149932591992      
0.136107290876      
-0.0490357828851    
-0.0805593619318    
-0.322550913614     
-0.374296494413     
-0.72890754183      
-0.801470775644     
-1.4243242276       
-1.51436333199      
-2.39207911392      
-2.23806365803      
-0.205341138561     
0.0696813566365     
0.540068928762      
0.505937444531      
0.336563267984      
0.28311658882       
0.143404150551      
0.108180078326      
-0.00087518616028   
-0.0172782466262    
-0.125878099809     
-0.127041936354     
-0.275948715569     
-0.264041344612     
-0.541532514963     
-0.51497062079      
-1.04499087279      
-1.22464067164      
-3.38234856837      
-5.17820760524      
-1.54174797233      
-0.384308327309     
0.493736635684      
0.505479381585      
0.430652777307      
0.434301339651      
0.295241334506      
0.289819734635      
0.137945698969      
0.123259005487      
-0.054381372773     
-0.087518656434     
-0.313804732251     
-0.372710142774     
-0.701009814189     
-0.790800375613     
-1.37237202467      
-1.50702262398      
-2.28629354593      
-2.26492199023      
-0.181798215246     
0.0255969544179     
0.532377378231      
0.506347209038      
0.328361102136      
0.29211970499       
0.132665864556      
0.117049050752      
-0.0209598887297    
-0.0103758467951    
-0.156676393791     
-0.122316444261     
-0.318551496975     
-0.263247216012     
-0.618721489121     
-0.528101747647     
-1.07146331605      
-1.17686203569      
-3.12770530812      
-4.79664433341      
-1.7668767854       
-0.403498860341     
0.472447122002      
0.485737432084      
0.414174202363      
0.429584124484      
0.285852880751      
0.295002368544      
0.133997934409      
0.134201424493      
-0.0505591322969    
-0.0743364727075    
-0.297263197076     
-0.357843512638     
-0.668930956728     
-0.771734622631     
-1.31948601662      
-1.47846665678      
-2.19429543962      
-2.22962712627      
-0.173961578778     
0.020693867582      
0.518226287263      
0.497321893953      
0.319663010762      
0.289135983165      
0.126865815921      
0.119601170549      
-0.031345819016     
-0.00222315564489   
-0.173565383611     
-0.109059976388     
-0.342230633541     
-0.246330861982     
-0.66206360597      
-0.503705185383     
-1.0884334906       
-1.1625953115       
-3.00471506423      
-4.84290046749      
-1.69792438473      
-0.351443503175     
0.455342421107      
0.465482047945      
0.408470807833      
0.433903821052      
0.285550235939      
0.312544472224      
0.138456415428      
0.155924506797      
-0.0437136231798    
-0.0537909697268    
-0.288751304795     
-0.341147075669     
-0.656963148275     
-0.757380740088     
-1.30311346618      
-1.45555676399      
-2.17404774108      
-2.1882024825       
-0.178226543598     
0.0387102360463     
0.509709655594      
0.489950577491      
0.316536162694      
0.283357144879      
0.127667448677      
0.120060538005      
-0.0292984101622    
0.00577734090172    
-0.167758458963     
-0.0926069132603    
-0.329883912444     
-0.219150660501     
-0.633758476477     
-0.453705398284     
-1.0602864724       
-1.15374182007      
-3.00039129345      
-5.06923172569      
-1.3270729848       
-0.259605198045     
0.459541496911      
0.460781024823      
0.411565961016      
0.444048168712      
0.297552093286      
0.331083987632      
0.158888293815      
0.170571486449      
-0.0250109738902    
-0.0441366066148    
-0.278282103206     
-0.336116703351     
-0.6450312527       
-0.75604235521      
-1.28356537853      
-1.45150066664      
-2.12651796854      
-2.16852535729      
-0.144731761133     
0.0516935883735     
0.506975169067      
0.488092542327      
0.306240375494      
0.279883889799      
0.111052865176      
0.115860798446      
-0.0418814543375    
0.000640433566817   
-0.167046138648     
-0.0929648702576    
-0.312371027601     
-0.203815941531     
-0.58342680782      
-0.418015967318     
-0.976094946537     
-1.10127483562      
-2.80068128564      
-4.90640982534      
-0.232776472194     
0.107792874757      
0.475747819015      
0.492195089848      
0.421033128229      
0.490795381939      
0.330311622282      
0.364337860912      
0.214784142826      
0.195178113794      
0.0468406814453     
-0.0168547954847    
-0.199322145847     
-0.304461712963     
-0.577468646307     
-0.726654689822     
-1.21183231649      
-1.41536312248      
-1.94317793921      
-2.08808384505      
-0.0125396596785    
0.0813340102875     
0.493709981029      
0.479348671023      
0.266949991628      
0.266968597276      
0.0779326512018     
0.0998827595578     
-0.0465830107027    
-0.0186121178754    
-0.130008966189     
-0.105055939925     
-0.218849596138     
-0.186473589976     
-0.395548486531     
-0.332039800759     
-0.720175733933     
-0.93850686366      
-2.18014660101      
-4.1655356546       
0.421330970504      
0.435571640818      
0.474293035354      
0.574026109707      
0.40524014211       
0.437898559214      
0.276549081767      
0.293250887128      
0.147351283493      
0.163729948572      
0.00469926761202    
0.00361560784144    
-0.185768639807     
-0.221476668278     
-0.479544333992     
-0.565333662211     
-1.08958359496      
-1.26987180601      
-1.62222717916      
-1.88085926544      
0.0708179907928     
0.145046797791      
0.507616609594      
0.495340617058      
0.237961848337      
0.253915531073      
0.0696919813243     
0.0596853431917     
-0.0172801357954    
-0.0612529541495    
-0.0671881241029    
-0.144562925674     
-0.103928418302     
-0.221708070654     
-0.155955142201     
-0.321222521425     
-0.390901383551     
-0.685382498994     
-1.1764767791       
-2.48723856579      
-0.351896561148     
-0.505612551244     
-0.399931937906     
-0.342360251624     
-0.325982916626     
-0.288397123528     
-0.301829187058     
-0.298358687215     
-0.31111919446      
-0.3452697825       
-0.361575268968     
-0.432811393481     
-0.47119334827      
-0.585497430609     
-0.680543562563     
-0.920452264262     
-1.19316945635      
-1.47337281959      
-1.59727624518      
-1.83931604098      
-0.967017685939     
-1.28432602362      
-0.836450969962     
-1.03202808752      
-0.774310222181     
-0.897863305153     
-0.748455485577     
-0.833466877657     
-0.768792296694     
-0.832015148739     
-0.85581013232      
-0.899471909185     
-1.04936680502      
-1.09220524477      
-1.60363276528      
-1.54610188595      
-2.39011165801      
-2.5324509539       
-1.2877431101       
-1.68701715194      
-1.13455092095      
-1.33271004631      
-1.04393502195      
-1.13888656532      
-0.988687263309     
-1.02603648474      
-0.976756696247     
-0.97398116663      
-1.02601787502      
-0.98039317581      
-1.17168232599      
-1.0684958572       
-1.60729601918      
-0.978915445416     
-2.16699906173      
-2.89124567342      
-1.27704324048      
-1.74812532494      
-1.11512765838      
-1.30754778377      
-1.01247317896      
-1.07490414399      
-0.943467522256     
-0.934742518792     
-0.911163975593     
-0.851611530715     
-0.927680951992     
-0.811642246504     
-1.01496141471      
-0.796870097882     
-1.25261637243      
-0.0479844187039    
-0.935494891278     
-2.42785875491      
-0.607728306745     
-1.19641125104      
-0.485746351639     
-0.775489643231     
-0.45281621815      
-0.571759558748     
-0.426319920721     
-0.433134310254     
-0.390473618833     
-0.307854977977     
-0.332352722792     
-0.143632559108     
-0.211662466522     
0.187651878409      
0.0908661613186     
0.801629975337      
-2.25251743156      
-1.31062857383      
0.609532442611      
0.70920948021       
0.541315010323      
0.410610908138      
0.279964017172      
0.109247413425      
0.0323789532453     
-0.137659661741     
-0.149805749018     
-0.248544082616     
-0.366849137935     
-0.403131902518     
-0.709467593969     
-0.658815469655     
-1.11388705971      
-0.941446488101     
-1.55330369121      
-0.906104096245     
0.158810293322      
0.57048332036       
0.685975609382      
0.598972379989      
0.420392827761      
0.369991036689      
0.276384023234      
0.251592424816      
0.161333165571      
0.151139269432      
0.00898345741497    
0.0122854264729     
-0.131190770493     
-0.14471349293      
-0.417615835995     
-0.520648030458     
-1.40706281627      
-2.11478786248      
-5.46773774189      
-10.3634855815      
-1.52662807782      
-0.754664501679     
0.484339396939      
0.508452695849      
0.461620365128      
0.492884592449      
0.325941180128      
0.299854178243      
0.15220008778       
0.0776235716027     
-0.0670088575387    
-0.153947265476     
-0.342579970825     
-0.417872638328     
-0.694072811379     
-0.781060324911     
-1.29200064508      
-1.33463199373      
-2.15827613897      
-1.5749378012       
-0.140514404611     
0.382959237674      
0.542109187019      
0.479397557909      
0.383043834682      
0.287785021095      
0.198051077951      
0.159912971538      
0.0558641083485     
0.0434166592493     
-0.0778494420985    
-0.0896833097724    
-0.251441801685     
-0.286341081997     
-0.547143691529     
-0.601368345808     
-1.15684570644      
-1.49464728966      
-3.82219092598      
-6.4557050447       
-1.25738011776      
-0.392363990564     
0.491876622419      
0.503428787617      
0.452374903329      
0.470642874294      
0.318587391491      
0.32728238947       
0.159945308117      
0.141888811094      
-0.0426982992474    
-0.0922554355827    
-0.320703389008     
-0.398055036773     
-0.730056174637     
-0.822737596347     
-1.42959543987      
-1.48103749083      
-2.41413841012      
-2.04496205125      
-0.228961786697     
0.176385761754      
0.533467477959      
0.490160594298      
0.342479322015      
0.263985263645      
0.15582230103       
0.0987449196042     
0.0144828381243     
-0.0218678585091    
-0.10836988804      
-0.133186474504     
-0.256657518329     
-0.270678397075     
-0.513640361615     
-0.516655085184     
-1.05659737913      
-1.30291200451      
-3.56678436701      
-5.6809224878       
-1.2707412355       
-0.332510576962     
0.501784304899      
0.511805718542      
0.448170249038      
0.452714896186      
0.309485868298      
0.306795088513      
0.149932602707      
0.136107481912      
-0.0490355036199    
-0.0805589531104    
-0.322550763686     
-0.374296064437     
-0.728907530035     
-0.801470195929     
-1.42432411319      
-1.51436246063      
-2.39207312561      
-2.23805898147      
-0.205342976783     
0.0696822326094     
0.540068842694      
0.505937243439      
0.336563247935      
0.283116331128      
0.143404078936      
0.10817977511       
-0.00087527322529   
-0.0172785079629    
-0.125877963475     
-0.127041913903     
-0.2759486712       
-0.264041194343     
-0.541531423912     
-0.514970038401     
-1.04499039259      
-1.22464062421      
-3.38237098986      
-5.17821987189      
-1.54174708438      
-0.384306253205     
0.493736472593      
0.505479258089      
0.430652804483      
0.434300907255      
0.2952408892        
0.28981949721       
0.137945431011      
0.123258742668      
-0.0543813790242    
-0.0875185337937    
-0.313804796118     
-0.372710124964     
-0.701010021364     
-0.790800402659     
-1.37237109376      
-1.50702151773      
-2.28629219106      
-2.26492103668      
-0.181797455598     
0.0255968463974     
0.532377271099      
0.506347243842      
0.328360893173      
0.292119723896      
0.132665551909      
0.117048979732      
-0.0209604566645    
-0.0103760833815    
-0.156676784206     
-0.122316446027     
-0.318551707409     
-0.263247339081     
-0.618723546584     
-0.52810185553      
-1.07146166042      
-1.17686126636      
-3.12769999831      
-4.79663850977      
-1.76688055677      
-0.403496647342     
0.472447019417      
0.485736971293      
0.41417233738       
0.429583379357      
0.285852200338      
0.29500200434       
0.13399750745       
0.134201242286      
-0.0505591269066    
-0.0743362913487    
-0.297263097915     
-0.357843377373     
-0.668930327        
-0.771735020794     
-1.31948713893      
-1.47846689518      
-2.19429536137      
-2.22962834317      
-0.173960598844     
0.020694044143      
0.518225976119      
0.497321700894      
0.31966249649       
0.289136024544      
0.126865482082      
0.119601123724      
-0.0313465989193    
-0.00222340563744   
-0.173567113738     
-0.10906009968      
-0.342231795804     
-0.246330574385     
-0.662067639798     
-0.503704873822     
-1.08844268191      
-1.16259471215      
-3.00470236678      
-4.84289957744      
-1.69793145915      
-0.351438595634     
0.455342159525      
0.465481270781      
0.408470412702      
0.433904460091      
0.285550289754      
0.312545229094      
0.138456576854      
0.155925011483      
-0.0437130474635    
-0.053790217845     
-0.288750791567     
-0.341146804111     
-0.656964024468     
-0.757380809859     
-1.30311068366      
-1.45556096707      
-2.17407839818      
-2.18822918207      
-0.178232015392     
0.0387089398191     
0.509709280441      
0.489950254724      
0.316535859554      
0.283356710614      
0.127667395033      
0.120060427312      
-0.0292987023671    
0.00577730324453    
-0.167758025006     
-0.0926060596225    
-0.329884396161     
-0.219149610387     
-0.633756083297     
-0.453701964948     
-1.06028900141      
-1.15374186068      
-3.00044558415      
-5.06926320699      
-1.3270902612       
-0.259612393367     
0.45954068294       
0.460780787639      
0.411565511712      
0.444048238738      
0.297551166574      
0.331083253348      
0.158887868191      
0.170571286994      
-0.0250104565678    
-0.0441365223528    
-0.278281061631     
-0.336116384034     
-0.645031568308     
-0.756042753384     
-1.28356668471      
-1.45150227838      
-2.12650121817      
-2.16850907066      
-0.144733692964     
0.0516936348378     
0.506974846428      
0.488092245922      
0.306240135117      
0.279883524384      
0.111052162271      
0.115860267339      
-0.0418827926121    
0.000639843943075   
-0.167047862059     
-0.0929653061326    
-0.312372478421     
-0.203815643837     
-0.58342864031      
-0.418016949844     
-0.976092023096     
-1.1012727807       
-2.80065748037      
-4.90638342944      
-0.232778426371     
0.107788628506      
0.475747440774      
0.492195246963      
0.421033274048      
0.490795433484      
0.330310464248      
0.364337688617      
0.21478388631       
0.195178762359      
0.0468414955541     
-0.0168536142884    
-0.199320479653     
-0.304460373305     
-0.577468733302     
-0.726654773189     
-1.21183051371      
-1.41536126781      
-1.9431618698       
-2.0880672608       
-0.01254279509      
0.081333711769      
0.49370990138       
0.479348637764      
0.266950641554      
0.266968739455      
0.0779322903116     
0.0998823555013     
-0.0465841440888    
-0.0186131187849    
-0.130010299513     
-0.105055851416     
-0.218849307978     
-0.186472177046     
-0.395547611096     
-0.332038597002     
-0.720173925301     
-0.938505599955     
-2.18012477827      
-4.16551618841      
0.421329344526      
0.435566271943      
0.474293374992      
0.574028780561      
0.405240696142      
0.437899008684      
0.276548582247      
0.293250138958      
0.147349998471      
0.163729846297      
0.00469952155492    
0.0036158370928     
-0.185766502984     
-0.221476194548     
-0.479543080749     
-0.565331738702     
-1.08957482474      
-1.26986600648      
-1.62222312615      
-1.88085710099      
0.0708155546496     
0.145047374579      
0.50761774247       
0.495340328204      
0.237963595052      
0.253916198563      
0.0696911020503     
0.0596841706075     
-0.0172807984935    
-0.0612535906212    
-0.0671871936682    
-0.144562723413     
-0.103928263456     
-0.221707844852     
-0.155957526343     
-0.321223420855     
-0.390899534551     
-0.68537592427      
-1.17644942546      
-2.48722932233      
-0.351821358131     
-0.505410348347     
-0.399920351591     
-0.342380979843     
-0.325972228107     
-0.288376168089     
-0.301826324906     
-0.298358727612     
-0.311120976479     
-0.345264974813     
-0.361571855949     
-0.432801403577     
-0.471187917313     
-0.585496875419     
-0.680540857619     
-0.920460010931     
-1.19317070946      
-1.47341038545      
-1.59738569349      
-1.83864319227      
-0.96701986931      
-1.28433778618      
-0.836455122088     
-1.03196392956      
-0.774294358293     
-0.897839939475     
-0.748452636025     
-0.833462413916     
-0.768794298074     
-0.832007461182     
-0.855804601854     
-0.899452617913     
-1.04936101018      
-1.09220773252      
-1.6036131567       
-1.54611368523      
-2.39025566816      
-2.53255898248      
-1.28774370827      
-1.68708201445      
-1.13458436513      
-1.33272392385      
-1.04394144977      
-1.1388915501       
-0.98868691712      
-1.02604432144      
-0.97675932152      
-0.973982205763     
-1.02602105306      
-0.98039613994      
-1.1716855235       
-1.06851859793      
-1.60730503686      
-0.978966816576     
-2.16689883132      
-2.89080443868      
-1.27706430672      
-1.74813395075      