# vtk DataFile Version 3.0
PyPan results file. Generated by PyPan, USU AeroLab (c) 2020.
ASCII
DATASET POLYDATA
POINTS 492 float
-4.75               -4.0                0.0                 
-4.75               4.0                 0.0                 
-4.7255282402       -4.00441503525      -0.00143460487016   
-4.7255282402       -4.00441503525      0.00143460487016    
-4.7255282402       -4.00272893906      -0.00375584419817   
-4.7255282402       -4.00272893906      0.00375584419817    
-4.7255282402       -4.0                -0.00464247865602   
-4.7255282402       -4.0                0.00464247865602    
-4.7255282402       4.0                 -0.00464247865602   
-4.7255282402       4.0                 0.00464247865602    
-4.7255282402       4.00272893906       -0.00375584419817   
-4.7255282402       4.00272893906       0.00375584419817    
-4.7255282402       4.00441503525       -0.00143460487016   
-4.7255282402       4.00441503525       0.00143460487016    
-4.6545085907       -4.01323318481      -0.00429976172745   
-4.6545085907       -4.01323318481      0.00429976172745    
-4.6545085907       -4.00817871094      -0.0112569229677    
-4.6545085907       -4.00817871094      0.0112569229677     
-4.6545085907       -4.0                -0.0139143215492    
-4.6545085907       -4.0                0.0139143215492     
-4.6545085907       4.0                 -0.0139143215492    
-4.6545085907       4.0                 0.0139143215492     
-4.6545085907       4.00817871094       -0.0112569229677    
-4.6545085907       4.00817871094       0.0112569229677     
-4.6545085907       4.01323318481       -0.00429976172745   
-4.6545085907       4.01323318481       0.00429976172745    
-4.65211296082      -3.90211296082      0.0                 
-4.65211296082      3.90211296082       0.0                 
-4.62764120102      -3.90211296082      -0.00464247865602   
-4.62764120102      -3.90211296082      0.00464247865602    
-4.62764120102      3.90211296082       -0.00464247865602   
-4.62764120102      3.90211296082       0.00464247865602    
-4.55662155151      -3.90211296082      -0.0139143215492    
-4.55662155151      -3.90211296082      0.0139143215492     
-4.55662155151      3.90211296082       -0.0139143215492    
-4.55662155151      3.90211296082       0.0139143215492     
-4.54389286041      -4.02558851242      -0.00831415317953   
-4.54389286041      -4.02558851242      0.00831415317953    
-4.54389286041      -4.01581430435      -0.0217667371035    
-4.54389286041      -4.01581430435      0.0217667371035     
-4.54389286041      -4.0                -0.0269051659852    
-4.54389286041      -4.0                0.0269051659852     
-4.54389286041      4.0                 -0.0269051659852    
-4.54389286041      4.0                 0.0269051659852     
-4.54389286041      4.01581430435       -0.0217667371035    
-4.54389286041      4.01581430435       0.0217667371035     
-4.54389286041      4.02558851242       -0.00831415317953   
-4.54389286041      4.02558851242       0.00831415317953    
-4.44600582123      -3.90211296082      -0.0269051659852    
-4.44600582123      -3.90211296082      0.0269051659852     
-4.44600582123      3.90211296082       -0.0269051659852    
-4.44600582123      3.90211296082       0.0269051659852     
-4.4045085907       -4.03891468048      -0.0126441745088    
-4.4045085907       -4.03891468048      0.0126441745088     
-4.4045085907       -4.02405071259      -0.0331028774381    
-4.4045085907       -4.02405071259      0.0331028774381     
-4.4045085907       -4.0                -0.0409174077213    
-4.4045085907       -4.0                0.0409174077213     
-4.4045085907       4.0                 -0.0409174077213    
-4.4045085907       4.0                 0.0409174077213     
-4.4045085907       4.02405071259       -0.0331028774381    
-4.4045085907       4.02405071259       0.0331028774381     
-4.4045085907       4.03891468048       -0.0126441745088    
-4.4045085907       4.03891468048       0.0126441745088     
-4.36803388596      -3.61803388596      0.0                 
-4.36803388596      3.61803388596       0.0                 
-4.34356212616      -3.61803388596      -0.00464247865602   
-4.34356212616      -3.61803388596      0.00464247865602    
-4.34356212616      3.61803388596       -0.00464247865602   
-4.34356212616      3.61803388596       0.00464247865602    
-4.30662155151      -3.90211296082      -0.0409174077213    
-4.30662155151      -3.90211296082      0.0409174077213     
-4.30662155151      3.90211296082       -0.0409174077213    
-4.30662155151      3.90211296082       0.0409174077213     
-4.27254247665      -3.61803388596      -0.0139143215492    
-4.27254247665      -3.61803388596      0.0139143215492     
-4.27254247665      3.61803388596       -0.0139143215492    
-4.27254247665      3.61803388596       0.0139143215492     
-4.25               -4.05034923553      -0.0163594372571    
-4.25               -4.05034923553      0.0163594372571     
-4.25               -4.03111743927      -0.0428295619786    
-4.25               -4.03111743927      0.0428295619786     
-4.25               -4.0                -0.0529402531683    
-4.25               -4.0                0.0529402531683     
-4.25               4.0                 -0.0529402531683    
-4.25               4.0                 0.0529402531683     
-4.25               4.03111743927       -0.0428295619786    
-4.25               4.03111743927       0.0428295619786     
-4.25               4.05034923553       -0.0163594372571    
-4.25               4.05034923553       0.0163594372571     
-4.16192674637      -3.61803388596      -0.0269051659852    
-4.16192674637      -3.61803388596      0.0269051659852     
-4.16192674637      3.61803388596       -0.0269051659852    
-4.16192674637      3.61803388596       0.0269051659852     
-4.15211296082      -3.90211296082      -0.0529402531683    
-4.15211296082      -3.90211296082      0.0529402531683     
-4.15211296082      3.90211296082       -0.0529402531683    
-4.15211296082      3.90211296082       0.0529402531683     
-4.0954914093       -4.05665874481      -0.0184096004814    
-4.0954914093       -4.05665874481      0.0184096004814     
-4.0954914093       -4.03501701355      -0.0481969565153    
-4.0954914093       -4.03501701355      0.0481969565153     
-4.0954914093       -4.0                -0.0595747157931    
-4.0954914093       -4.0                0.0595747157931     
-4.0954914093       4.0                 -0.0595747157931    
-4.0954914093       4.0                 0.0595747157931     
-4.0954914093       4.03501701355       -0.0481969565153    
-4.0954914093       4.03501701355       0.0481969565153     
-4.0954914093       4.05665874481       -0.0184096004814    
-4.0954914093       4.05665874481       0.0184096004814     
-4.02254247665      -3.61803388596      -0.0409174077213    
-4.02254247665      -3.61803388596      0.0409174077213     
-4.02254247665      3.61803388596       -0.0409174077213    
-4.02254247665      3.61803388596       0.0409174077213     
-3.99760460854      -3.90211296082      -0.0595747157931    
-3.99760460854      -3.90211296082      0.0595747157931     
-3.99760460854      3.90211296082       -0.0595747157931    
-3.99760460854      3.90211296082       0.0595747157931     
-3.95610737801      -4.05488920212      -0.0178346466273    
-3.95610737801      -4.05488920212      0.0178346466273     
-3.95610737801      -4.03392362595      -0.046691711992     
-3.95610737801      -4.03392362595      0.046691711992      
-3.95610737801      -4.0                -0.0577141307294    
-3.95610737801      -4.0                0.0577141307294     
-3.95610737801      4.0                 -0.0577141307294    
-3.95610737801      4.0                 0.0577141307294     
-3.95610737801      4.03392362595       -0.046691711992     
-3.95610737801      4.03392362595       0.046691711992      
-3.95610737801      4.05488920212       -0.0178346466273    
-3.95610737801      4.05488920212       0.0178346466273     
-3.92557048798      -3.17557048798      0.0                 
-3.92557048798      3.17557048798       0.0                 
-3.90109872818      -3.17557048798      -0.00464247865602   
-3.90109872818      -3.17557048798      0.00464247865602    
-3.90109872818      3.17557048798       -0.00464247865602   
-3.90109872818      3.17557048798       0.00464247865602    
-3.86803388596      -3.61803388596      -0.0529402531683    
-3.86803388596      -3.61803388596      0.0529402531683     
-3.86803388596      3.61803388596       -0.0529402531683    
-3.86803388596      3.61803388596       0.0529402531683     
-3.85822033882      -3.90211296082      -0.0577141307294    
-3.85822033882      -3.90211296082      0.0577141307294     
-3.85822033882      3.90211296082       -0.0577141307294    
-3.85822033882      3.90211296082       0.0577141307294     
-3.8454914093       -4.0437951088       -0.0142299029976    
-3.8454914093       -4.0437951088       0.0142299029976     
-3.8454914093       -4.02706670761      -0.037254370749     
-3.8454914093       -4.02706670761      0.037254370749      
-3.8454914093       -4.0                -0.0460489317775    
-3.8454914093       -4.0                0.0460489317775     
-3.8454914093       4.0                 -0.0460489317775    
-3.8454914093       4.0                 0.0460489317775     
-3.8454914093       4.02706670761       -0.037254370749     
-3.8454914093       4.02706670761       0.037254370749      
-3.8454914093       4.0437951088        -0.0142299029976    
-3.8454914093       4.0437951088        0.0142299029976     
-3.83007907867      -3.17557048798      -0.0139143215492    
-3.83007907867      -3.17557048798      0.0139143215492     
-3.83007907867      3.17557048798       -0.0139143215492    
-3.83007907867      3.17557048798       0.0139143215492     
-3.7744717598       -4.0246257782       -0.00800147373229   
[...]
CELL_DATA 980
SCALARS pressure_coefficient float 1
LOOKUP_TABLE default
-3.10144707305      
-1.94927876312      
0.609377679608      
0.738413172018      
0.59468021524       
0.461365332728      
0.324140774915      
0.14380347374       
0.0601103915956     
-0.119457861442     
-0.139226279829     
-0.244969214356     
-0.377225469897     
-0.420258762722     
-0.755844526423     
-0.709638987484     
-1.23789526329      
-1.05519771651      
-1.86288573465      
-1.14125275338      
-0.00108545336075   
0.519095453855      
0.723859940526      
0.656803820884      
0.479365415232      
0.431895446573      
0.324536935347      
0.300777588642      
0.1963342412        
0.185158461441      
0.0310161389539     
0.0327530228003     
-0.131219611614     
-0.147982009595     
-0.463656393037     
-0.583333264602     
-1.61339150188      
-2.44329028997      
-6.48595722768      
-12.4596209098      
-2.1468991229       
-1.18920749098      
0.471462779175      
0.493189737369      
0.498080386091      
0.529543545955      
0.368077436834      
0.340775223839      
0.187129903366      
0.106367901973      
-0.0469872149814    
-0.143042166993     
-0.347283653354     
-0.432328402944     
-0.743927376893     
-0.839194202273     
-1.44138321408      
-1.49146325886      
-2.57108971669      
-1.92974532722      
-0.37577684331      
0.276162644024      
0.565192862598      
0.535161777465      
0.435603685851      
0.349389987989      
0.244323214992      
0.208756508742      
0.0869330010932     
0.0759555818293     
-0.0664269213213    
-0.0781531650449    
-0.266657315019     
-0.305968592166     
-0.608050081795     
-0.674822439026     
-1.31918984447      
-1.71163356976      
-4.51288756376      
-7.64010849344      
-1.80828018972      
-0.723042028156     
0.482588198523      
0.498082901882      
0.485351272153      
0.501600463307      
0.358479794719      
0.366595286699      
0.195440275748      
0.175493031959      
-0.0192156163174    
-0.0734262803338    
-0.32096071263      
-0.405918345171     
-0.777834510331     
-0.882240068212     
-1.58722060535      
-1.65999265134      
-2.86092712202      
-2.48395357125      
-0.488833177442     
0.00319439006703    
0.552829219154      
0.532802646561      
0.393576395687      
0.321004495271      
0.198701142131      
0.142610119769      
0.0424070037594     
0.00420361619353    
-0.0984174621017    
-0.126904470645     
-0.270211328888     
-0.289744607909     
-0.568066023335     
-0.579897871196     
-1.20140773484      
-1.48481737194      
-4.19118840396      
-6.67067335375      
-1.81854268443      
-0.645440648234     
0.494255677044      
0.512347854967      
0.482299421599      
0.485797793273      
0.349308422932      
0.345742881327      
0.185214861911      
0.169873963437      
-0.0253891029109    
-0.0597016831704    
-0.321911483419     
-0.378569442415     
-0.774395900584     
-0.857093022691     
-1.57855815863      
-1.69308252659      
-2.83185040271      
-2.69575128042      
-0.460367578548     
-0.128894583        
0.561185261286      
0.5420932685        
0.388470401056      
0.337337979299      
0.186493736212      
0.150541680848      
0.0269338428956     
0.0080234622563     
-0.116054323194     
-0.120755864311     
-0.289664935403     
-0.282160564133     
-0.59654684744      
-0.576639501087     
-1.18647871229      
-1.39503174025      
-3.97849509624      
-6.08747690807      
-2.1311553754       
-0.704153553916     
0.484178973727      
0.507560138094      
0.466533944373      
0.468809190498      
0.335295097701      
0.328800909209      
0.173154063819      
0.156862810515      
-0.0308018055129    
-0.0665715215283    
-0.312584829122     
-0.376238626671     
-0.744253340107     
-0.844415517403     
-1.52140465436      
-1.68202766023      
-2.71216173545      
-2.7189240165       
-0.429777112408     
-0.178881350406     
0.554452957776      
0.539452868581      
0.380442751755      
0.344842514666      
0.175998116895      
0.158864521413      
0.0067458307922     
0.0149520316777     
-0.147457952858     
-0.115680354113     
-0.33354889358      
-0.280820385093     
-0.677153225242     
-0.589658899234     
-1.21335381478      
-1.34150195008      
-3.69405641678      
-5.6576684976       
-2.38468955221      
-0.721339101617     
0.459605280751      
0.485093513541      
0.450012568292      
0.461987524435      
0.325600150025      
0.333082726649      
0.169093198029      
0.167644808998      
-0.0267937299481    
-0.0530036701656    
-0.295202908664     
-0.360437312145     
-0.709994531798     
-0.823489912912     
-1.46371709596      
-1.64946977298      
-2.60842822009      
-2.67568983843      
-0.416950375741     
-0.181006010065     
0.540178839452      
0.529684713077      
0.371293208753      
0.34110386759       
0.170096372382      
0.161005762122      
-0.00363485622761   
0.0231439592634     
-0.164435805044     
-0.101830103945     
-0.35743653529      
-0.262580280272     
-0.721372920527     
-0.562550125238     
-1.22940590286      
-1.32438219159      
-3.55503013816      
-5.70579654177      
-2.28462011428      
-0.649380308695     
0.442651612605      
0.462051121476      
0.443129548777      
0.462995795804      
0.324955945442      
0.349607339214      
0.173718403424      
0.189340851363      
-0.0193941795386    
-0.0319526328149    
-0.285916021245     
-0.342861677075     
-0.696976679504     
-0.807765864411     
-1.44530088212      
-1.62347038214      
-2.58384844083      
-2.62661841757      
-0.418921029657     
-0.156264769956     
0.531105837518      
0.52309764793       
0.367503039036      
0.335111849147      
0.170537980952      
0.161105289897      
-0.00149216721575   
0.0310624594376     
-0.157958690313     
-0.0848235742073    
-0.343329122955     
-0.233688075175     
-0.688565752263     
-0.507969939484     
-1.1950387533       
-1.31293089089      
-3.54401088235      
-5.95403500782      
-1.79861943083      
-0.518366282117     
0.456059165153      
0.460243756563      
0.447205995833      
0.473022387198      
0.337687729558      
0.368613867728      
0.195327715868      
0.20462584405       
0.00112556476469    
-0.0217093608881    
-0.273335642018     
-0.337184266469     
-0.683031458601     
-0.805457066014     
-1.42225470384      
-1.61711852377      
-2.52581646568      
-2.60025060794      
-0.37465014947      
-0.138255011914     
0.530416684009      
0.521689713595      
0.356954149374      
0.331090872066      
0.153111959317      
0.156072596164      
-0.0148535232454    
0.0251334914843     
-0.157072291543     
-0.0855847697345    
-0.323011515768     
-0.217462381212     
-0.628806401098     
-0.467836322228     
-1.09347095668      
-1.25240463704      
-3.29831822152      
-5.76023587126      
-0.454817951132     
-0.0436136044875    
0.498614193481      
0.507123262647      
0.460460147026      
0.523935130326      
0.370780350105      
0.403645331873      
0.251236149357      
0.230261606629      
0.0744837179081     
0.00695480939359    
-0.189421182449     
-0.303092295739     
-0.606438304054     
-0.771915302057     
-1.33728135471      
-1.57322397029      
-2.30813070757      
-2.4999336352       
-0.207158410324     
-0.0973398638132    
0.525174967741      
0.513293107099      
0.316385056935      
0.315532263265      
0.11492611583       
0.136415776081      
-0.0256798740159    
0.0019350429184     
-0.123587690188     
-0.100864627116     
-0.227084024259     
-0.200877770882     
-0.426466351356     
-0.375709750772     
-0.800324148727     
-1.06382442763      
-2.5312639219       
-4.85135589186      
0.394450078103      
0.392558380912      
0.514105279047      
0.610281948121      
0.449266304194      
0.483426988599      
0.315394732879      
0.333417032461      
0.178386070561      
0.196464660413      
0.0262132956344     
0.0259833229278     
-0.178812360532     
-0.217614231529     
-0.500835889777     
-0.600120982867     
-1.19358213744      
-1.40786928291      
-1.92689859684      
-2.24506910276      
-0.0954841599452    
-0.0143930713622    
0.538465047587      
0.522784177204      
0.273564658257      
0.290742356792      
0.0926329570823     
0.0859586800217     
-0.00569428526582   
-0.0463385232178    
-0.0643572721893    
-0.140033176366     
-0.108921757323     
-0.228972657427     
-0.17291167113      
-0.350464102368     
-0.435810683431     
-0.772013507038     
-1.33838407181      
-2.86115273534      
-0.43810242434      
-0.598831144488     
-0.458430874659     
-0.409065025688     
-0.373457698394     
-0.342280511836     
-0.345388839764     
-0.346546008088     
-0.352366484478     
-0.392411738322     
-0.403087905066     
-0.483793881568     
-0.517689875843     
-0.649269763764     
-0.741880759623     
-1.02480537085      
-1.31389088968      
-1.74544184717      
-1.90097529672      
-2.13295542419      
-1.18128584206      
-1.5009294605       
-1.01203305809      
-1.21118286256      
-0.927692747717     
-1.05509319137      
-0.888295797645     
-0.977320592996     
-0.902650383797     
-0.971889113745     
-0.993911629978     
-1.04860142388      
-1.20951527116      
-1.2765316997       
-1.83822779924      
-1.88348175522      
-2.83708554158      
-2.9357709827       
-1.55409156815      
-1.96553816987      
-1.3609084219       
-1.55978687156      
-1.2445843169       
-1.33661354693      
-1.17217604765      
-1.20509473726      
-1.15076505605      
-1.14429961378      
-1.20093250622      
-1.15499725895      
-1.36527473034      
-1.26945785591      
-1.86045996855      
-1.29577476697      
-2.54942764776      
-3.32013819446      
-1.51437353476      
-2.01072606766      
-1.31709589995      
-1.51021600789      
-1.19011730542      
-1.24504678779      
-1.10423034795      
-1.08425338894      
-1.06153535888      
-0.989589440605     
-1.0760118642       
-0.948672053161     
-1.17461503808      
-0.94770739069      
-1.44221073854      
-0.252629534961     
-1.05966572602      
-2.73924351295      
-0.692806944706     
-1.33816306842      
-0.555909888639     
-0.867586821135     
-0.516327162124     
-0.63974342505      
-0.483772396308     
-0.484079709588     
-0.440507217798     
-0.344512418078     
-0.373355145581     
-0.166723008933     
-0.241101173208     
0.179183873922      
0.0737356275127     
0.731872862023      
-3.10145323867      
-1.94928223452      
0.609377899543      
0.738414857725      
0.594680776923      
0.461365825954      
0.324140746016      
0.143803416741      
0.0601101543119     
-0.119458044695     
-0.139226215363     
-0.244968978006     
-0.377225534953     
-0.420258450322     
-0.755844940152     
-0.709638630025     
-1.2378948922       
-1.05519721183      
-1.8628849994       
-1.14125264543      
-0.00108615658699   
0.519094731189      
0.723860126046      
0.656803902153      
0.479365408623      
0.431895590416      
0.324536977077      
0.300777861282      
0.19633422904       
0.185158917244      
0.0310158432324     
0.0327533571234     
-0.131219702654     
-0.147981439717     
-0.463655845005     
-0.583331261588     
-1.61339103632      
-2.44328408109      
-6.4859458642       
-12.459583613       
-2.14689848128      
-1.18920884177      
0.47146216621       
0.49318882516       
0.498080205859      
0.529543781656      
0.368077499267      
0.340775955378      
0.187130173764      
0.106368652272      
-0.0469868256803    
-0.143041536463     
-0.347283412727     
-0.432327983525     
-0.743926758761     
-0.839193974784     
-1.44138230516      
-1.49146287731      
-2.57108556825      
-1.92974349366      
-0.375778078312     
0.276162556342      
0.56519251536       
0.535161412464      
0.435603931453      
0.349389856118      
0.244323387919      
0.208756569367      
0.0869330724144     
0.0759556343268     
-0.0664267532263    
-0.0781528784361    
-0.266657071343     
-0.305968026583     
-0.608049828217     
-0.674821487759     
-1.31919109057      
-1.71163531222      
-4.51287804179      
-7.64011013337      
-1.80827608558      
-0.723040219923     
0.48258778354       
0.498082346575      
0.485351246815      
0.501600710946      
0.358479696069      
0.366595625401      
0.195440378496      
0.175493354015      
-0.0192153031796    
-0.073425720155     
-0.320960062382     
-0.405917915039     
-0.777833440423     
-0.882239820415     
-1.58722008713      
-1.65999261399      
-2.86092980842      
-2.48395166502      
-0.48883281487      
0.00319527565018    
0.552828816914      
0.532802289381      
0.393576456333      
0.321004105467      
0.198701335436      
0.142609906594      
0.0424070352394     
0.00420350144009    
-0.0984174183836    
-0.126904313643     
-0.270211221473     
-0.289744234953     
-0.568065420301     
-0.579897072573     
-1.20140989075      
-1.48481733968      
-4.1911927677       
-6.6706798815       
-1.8185346646       
-0.645435438042     
0.494255615868      
0.512347519042      
0.482299286211      
0.485798075822      
0.349308416143      
0.345743093977      
0.185214869057      
0.169874212614      
-0.0253888102466    
-0.0597012134619    
-0.321911296158     
-0.37856894792      
-0.774395833297     
-0.857092352342     
-1.57855797011      
-1.6930814485       
-2.83184353908      
-2.69574558382      
-0.460370123454     
-0.128893429915     
0.561185115384      
0.542093091212      
0.388470357417      
0.337337681587      
0.186493686291      
0.150541357572      
0.0269337869591     
0.00802321168879    
-0.116054163208     
-0.120755806883     
-0.28966487572      
-0.282160351225     
-0.596545603383     
-0.57663869151      
-1.1864782388       
-1.39503186876      
-3.97852088332      
-6.08749196169      
-2.13115444978      
-0.704150871596     
0.484178694449      
0.507559874633      
0.466533922327      
0.468808791483      
0.335294646088      
0.328800696371      
0.173153777768      
0.156862575027      
-0.0308018194538    
-0.0665713704965    
-0.31258488673      
-0.376238577428     
-0.744253550872     
-0.844415511206     
-1.5214036642       
-1.68202641594      
-2.71216027425      
-2.71892284172      
-0.429776273723     
-0.178881457496     
0.554452892881      
0.539452843565      
0.380442539257      
0.344842508341      
0.17599780781       
0.158864446466      
0.00674525854805    
0.0149518141759     
-0.147458365651     
-0.115680330085     
-0.333549146261     
-0.280820487408     
-0.677155504984     
-0.589658962532     
-1.21335205586      
-1.34150116225      
-3.69405042062      
-5.65766260441      
-2.38469401181      
-0.721336131671     
0.459605350249      
0.485093103901      
0.450010910165      
0.461986810687      
0.325599453715      
0.333082370366      
0.169092746293      
0.167644639866      
-0.0267937336129    
-0.0530034699977    
-0.295202780911     
-0.360437150905     
-0.709993831017     
-0.823490308635     
-1.46371831668      
-1.64947002218      
-2.60842796371      
-2.67569136982      
-0.416949066841     
-0.181005734143     
0.54017854539       
0.529684496666      
0.371292705221      
0.341103870422      
0.170096043794      
0.1610057157        
-0.0036356360664    
0.0231437338483     
-0.164437594911     
-0.101830194955     
-0.357437772049     
-0.26257992679      
-0.721377284536     
-0.562549769192     
-1.22941580089      
-1.32438152326      
-3.55501597418      
-5.70579637551      
-2.28462673873      
-0.649373949424     
0.4426514335        
0.462050445157      
0.443129129961      
0.462996182549      
0.324955948989      
0.349608044076      
0.173718523366      
0.189341345339      
-0.0193936367885    
-0.0319518693798    
-0.285915536691     
-0.34286138895      
-0.696977644584     
-0.807765958242     
-1.44529805765      
-1.62347505623      
-2.58388401842      
-2.62664992915      
-0.41892839136      
-0.15626691667      
0.5311053965        
0.523097320716      
0.367502711661      
0.33511140456       
0.170537920239      
0.161105171044      
-0.00149243927764   
0.0310624412077     
-0.157958248299     
-0.0848226860535    
-0.343329608057     
-0.233686931443     
-0.688563188933     
-0.50796628989      
-1.19504164382      
-1.31293127617      
-3.54407283034      
-5.95407210422      
-1.79864055041      
-0.518375421886     
0.456058147278      
0.460243348454      
0.447205532261      
0.473022445869      
0.337686824938      
0.368613175352      
0.195327296834      
0.204625628414      
0.0011260636111     
-0.0217093046819    
-0.273334590185     
-0.337183950858     
-0.683031775818     
-0.805457477061     
-1.42225610296      
-1.61712037925      
-2.52579754825      
-2.60023179742      
-0.374652837192     
-0.138255313092     
0.530416365437      
0.521689452215      
0.356953883902      
0.331090509731      
0.153111281936      
0.156072080618      
-0.0148548532359    
0.0251329130882     
-0.157074050149     
-0.0855852031778    
-0.32301304785      
-0.217462099634     
-0.62880833507      
-0.467837275669     
-1.09346795471      
-1.25240249068      
-3.29829175182      
-5.76020598686      
-0.454821492664     
-0.0436195111451    
0.498613507316      
0.507122511359      
0.460460279897      
0.523935129265      
0.370779174073      
0.403645148287      
0.251235868927      
0.230262264898      
0.0744845314996     
0.00695596531543    
-0.189419523686     
-0.303090969453     
-0.60643836821      
-0.771915381074     
-1.33727948632      
-1.5732219501       
-2.30811261412      
-2.49991447083      
-0.20716274539      
-0.0973407619991    
0.525174860059      
0.513293114846      
0.316385725413      
0.315532418797      
0.114925810223      
0.136415397341      
-0.0256810119308    
0.00193405968123    
-0.123589162596     
-0.100864586398     
-0.22708395289      
-0.20087640668      
-0.426465839947     
-0.375708567809     
-0.800322611959     
-1.06382282904      
-2.53123956822      
-4.85133390833      
0.39444707579       
0.39255071864       
0.514105651435      
0.610284600187      
0.449266990057      
0.483427569219      
0.315394192223      
0.33341632573       
0.178384633322      
0.196464604933      
0.0262135668386     
0.0259835695585     
-0.178810093666     
-0.217613786292     
-0.500834601854     
-0.60011902095      
-1.19357303684      
-1.40786309954      
-1.92689413115      
-2.24506675831      
-0.0954875075646    
-0.0143925313815    
0.538466264242      
0.522783988863      
0.273566447891      
0.290743082804      
0.0926320626505     
0.0859575333435     
-0.00569503672444   
-0.0463391601501    
-0.0643561374749    
-0.140032814168     
-0.108921365029     
-0.228972309701     
-0.172914084941     
-0.350464955214     
-0.43580880989      
-0.772006468588     
-1.33835425419      
-2.8611443179       
-0.438015482356     
-0.598591097283     
-0.458418211486     
-0.409092257789     
-0.373445607594     
-0.34225669706      
-0.345385491705     
-0.346545904416     
-0.352368638341     
-0.392406076978     
-0.403083964347     
-0.483782933461     
-0.517683673631     
-0.649269267715     
-0.741877586222     
-1.02481369534      
-1.31389236324      
-1.74548402905      
-1.9011075532       
-2.13216540956      
-1.18129073441      
-1.50094894288      
-1.01204063626      
-1.21111007002      
-0.927675373822     
-1.05506628708      
-0.888292542091     
-0.9773154559       
-0.902652948259     
-0.97188092598      
-0.993906017947     
-1.04857992546      
-1.20950894266      
-1.2765350085       
-1.83820379807      
-1.88349559579      
-2.83726090107      
-2.9359074812       
-1.55409409382      
-1.96561554625      
-1.36094938748      
-1.55980557846      
-1.2445930407       
-1.3366209398       
-1.17217580569      
-1.20510447489      
-1.15076815123      
-1.14430117743      
-1.20093715424      
-1.1550015021       
-1.36527950394      
-1.26948504577      
-1.86047076933      
-1.29583582258      
-2.54931334995      
-3.31962261568      
-1.51440127233      
-2.01073662112      