# vtk DataFile Version 3.0
PyPan results file. Generated by PyPan, USU AeroLab (c) 2020.
ASCII
DATASET POLYDATA
POINTS 492 float
-4.75               -4.0                0.0                 
-4.75               4.0                 0.0                 
-4.7255282402       -4.00441503525      -0.00143460487016   
-4.7255282402       -4.00441503525      0.00143460487016    
-4.7255282402       -4.00272893906      -0.00375584419817   
-4.7255282402       -4.00272893906      0.00375584419817    
-4.7255282402       -4.0                -0.00464247865602   
-4.7255282402       -4.0                0.00464247865602    
-4.7255282402       4.0                 -0.00464247865602   
-4.7255282402       4.0                 0.00464247865602    
-4.7255282402       4.00272893906       -0.00375584419817   
-4.7255282402       4.00272893906       0.00375584419817    
-4.7255282402       4.00441503525       -0.00143460487016   
-4.7255282402       4.00441503525       0.00143460487016    
-4.6545085907       -4.01323318481      -0.00429976172745   
-4.6545085907       -4.01323318481      0.00429976172745    
-4.6545085907       -4.00817871094      -0.0112569229677    
-4.6545085907       -4.00817871094      0.0112569229677     
-4.6545085907       -4.0                -0.0139143215492    
-4.6545085907       -4.0                0.0139143215492     
-4.6545085907       4.0                 -0.0139143215492    
-4.6545085907       4.0                 0.0139143215492     
-4.6545085907       4.00817871094       -0.0112569229677    
-4.6545085907       4.00817871094       0.0112569229677     
-4.6545085907       4.01323318481       -0.00429976172745   
-4.6545085907       4.01323318481       0.00429976172745    
-4.65211296082      -3.90211296082      0.0                 
-4.65211296082      3.90211296082       0.0                 
-4.62764120102      -3.90211296082      -0.00464247865602   
-4.62764120102      -3.90211296082      0.00464247865602    
-4.62764120102      3.90211296082       -0.00464247865602   
-4.62764120102      3.90211296082       0.00464247865602    
-4.55662155151      -3.90211296082      -0.0139143215492    
-4.55662155151      -3.90211296082      0.0139143215492     
-4.55662155151      3.90211296082       -0.0139143215492    
-4.55662155151      3.90211296082       0.0139143215492     
-4.54389286041      -4.02558851242      -0.00831415317953   
-4.54389286041      -4.02558851242      0.00831415317953    
-4.54389286041      -4.01581430435      -0.0217667371035    
-4.54389286041      -4.01581430435      0.0217667371035     
-4.54389286041      -4.0                -0.0269051659852    
-4.54389286041      -4.0                0.0269051659852     
-4.54389286041      4.0                 -0.0269051659852    
-4.54389286041      4.0                 0.0269051659852     
-4.54389286041      4.01581430435       -0.0217667371035    
-4.54389286041      4.01581430435       0.0217667371035     
-4.54389286041      4.02558851242       -0.00831415317953   
-4.54389286041      4.02558851242       0.00831415317953    
-4.44600582123      -3.90211296082      -0.0269051659852    
-4.44600582123      -3.90211296082      0.0269051659852     
-4.44600582123      3.90211296082       -0.0269051659852    
-4.44600582123      3.90211296082       0.0269051659852     
-4.4045085907       -4.03891468048      -0.0126441745088    
-4.4045085907       -4.03891468048      0.0126441745088     
-4.4045085907       -4.02405071259      -0.0331028774381    
-4.4045085907       -4.02405071259      0.0331028774381     
-4.4045085907       -4.0                -0.0409174077213    
-4.4045085907       -4.0                0.0409174077213     
-4.4045085907       4.0                 -0.0409174077213    
-4.4045085907       4.0                 0.0409174077213     
-4.4045085907       4.02405071259       -0.0331028774381    
-4.4045085907       4.02405071259       0.0331028774381     
-4.4045085907       4.03891468048       -0.0126441745088    
-4.4045085907       4.03891468048       0.0126441745088     
-4.36803388596      -3.61803388596      0.0                 
-4.36803388596      3.61803388596       0.0                 
-4.34356212616      -3.61803388596      -0.00464247865602   
-4.34356212616      -3.61803388596      0.00464247865602    
-4.34356212616      3.61803388596       -0.00464247865602   
-4.34356212616      3.61803388596       0.00464247865602    
-4.30662155151      -3.90211296082      -0.0409174077213    
-4.30662155151      -3.90211296082      0.0409174077213     
-4.30662155151      3.90211296082       -0.0409174077213    
-4.30662155151      3.90211296082       0.0409174077213     
-4.27254247665      -3.61803388596      -0.0139143215492    
-4.27254247665      -3.61803388596      0.0139143215492     
-4.27254247665      3.61803388596       -0.0139143215492    
-4.27254247665      3.61803388596       0.0139143215492     
-4.25               -4.05034923553      -0.0163594372571    
-4.25               -4.05034923553      0.0163594372571     
-4.25               -4.03111743927      -0.0428295619786    
-4.25               -4.03111743927      0.0428295619786     
-4.25               -4.0                -0.0529402531683    
-4.25               -4.0                0.0529402531683     
-4.25               4.0                 -0.0529402531683    
-4.25               4.0                 0.0529402531683     
-4.25               4.03111743927       -0.0428295619786    
-4.25               4.03111743927       0.0428295619786     
-4.25               4.05034923553       -0.0163594372571    
-4.25               4.05034923553       0.0163594372571     
-4.16192674637      -3.61803388596      -0.0269051659852    
-4.16192674637      -3.61803388596      0.0269051659852     
-4.16192674637      3.61803388596       -0.0269051659852    
-4.16192674637      3.61803388596       0.0269051659852     
-4.15211296082      -3.90211296082      -0.0529402531683    
-4.15211296082      -3.90211296082      0.0529402531683     
-4.15211296082      3.90211296082       -0.0529402531683    
-4.15211296082      3.90211296082       0.0529402531683     
-4.0954914093       -4.05665874481      -0.0184096004814    
-4.0954914093       -4.05665874481      0.0184096004814     
-4.0954914093       -4.03501701355      -0.0481969565153    
-4.0954914093       -4.03501701355      0.0481969565153     
-4.0954914093       -4.0                -0.0595747157931    
-4.0954914093       -4.0                0.0595747157931     
-4.0954914093       4.0                 -0.0595747157931    
-4.0954914093       4.0                 0.0595747157931     
-4.0954914093       4.03501701355       -0.0481969565153    
-4.0954914093       4.03501701355       0.0481969565153     
-4.0954914093       4.05665874481       -0.0184096004814    
-4.0954914093       4.05665874481       0.0184096004814     
-4.02254247665      -3.61803388596      -0.0409174077213    
-4.02254247665      -3.61803388596      0.0409174077213     
-4.02254247665      3.61803388596       -0.0409174077213    
-4.02254247665      3.61803388596       0.0409174077213     
-3.99760460854      -3.90211296082      -0.0595747157931    
-3.99760460854      -3.90211296082      0.0595747157931     
-3.99760460854      3.90211296082       -0.0595747157931    
-3.99760460854      3.90211296082       0.0595747157931     
-3.95610737801      -4.05488920212      -0.0178346466273    
-3.95610737801      -4.05488920212      0.0178346466273     
-3.95610737801      -4.03392362595      -0.046691711992     
-3.95610737801      -4.03392362595      0.046691711992      
-3.95610737801      -4.0                -0.0577141307294    
-3.95610737801      -4.0                0.0577141307294     
-3.95610737801      4.0                 -0.0577141307294    
-3.95610737801      4.0                 0.0577141307294     
-3.95610737801      4.03392362595       -0.046691711992     
-3.95610737801      4.03392362595       0.046691711992      
-3.95610737801      4.05488920212       -0.0178346466273    
-3.95610737801      4.05488920212       0.0178346466273     
-3.92557048798      -3.17557048798      0.0                 
-3.92557048798      3.17557048798       0.0                 
-3.90109872818      -3.17557048798      -0.00464247865602   
-3.90109872818      -3.17557048798      0.00464247865602    
-3.90109872818      3.17557048798       -0.00464247865602   
-3.90109872818      3.17557048798       0.00464247865602    
-3.86803388596      -3.61803388596      -0.0529402531683    
-3.86803388596      -3.61803388596      0.0529402531683     
-3.86803388596      3.61803388596       -0.0529402531683    
-3.86803388596      3.61803388596       0.0529402531683     
-3.85822033882      -3.90211296082      -0.0577141307294    
-3.85822033882      -3.90211296082      0.0577141307294     
-3.85822033882      3.90211296082       -0.0577141307294    
-3.85822033882      3.90211296082       0.0577141307294     
-3.8454914093       -4.0437951088       -0.0142299029976    
-3.8454914093       -4.0437951088       0.0142299029976     
-3.8454914093       -4.02706670761      -0.037254370749     
-3.8454914093       -4.02706670761      0.037254370749      
-3.8454914093       -4.0                -0.0460489317775    
-3.8454914093       -4.0                0.0460489317775     
-3.8454914093       4.0                 -0.0460489317775    
-3.8454914093       4.0                 0.0460489317775     
-3.8454914093       4.02706670761       -0.037254370749     
-3.8454914093       4.02706670761       0.037254370749      
-3.8454914093       4.0437951088        -0.0142299029976    
-3.8454914093       4.0437951088        0.0142299029976     
-3.83007907867      -3.17557048798      -0.0139143215492    
-3.83007907867      -3.17557048798      0.0139143215492     
-3.83007907867      3.17557048798       -0.0139143215492    
-3.83007907867      3.17557048798       0.0139143215492     
-3.7744717598       -4.0246257782       -0.00800147373229   
[...]
CELL_DATA 980
SCALARS pressure_coefficient float 1
LOOKUP_TABLE default
0.449995025828      
0.480182289391      
0.207220138188      
0.226503788084      
0.0924617231243     
0.044665454787      
-0.00620129828437   
-0.0811633211627    
-0.0997146135302    
-0.187623407104     
-0.145584088726     
-0.189211904732     
-0.208892481061     
-0.198424929637     
-0.308546154794     
-0.233713853263     
-0.263684795659     
-0.167790749414     
0.0763215971051     
0.278005491763      
0.491822001532      
0.369665978888      
0.197052848552      
0.0340863420307     
-0.0430120467996    
-0.0996003242998    
-0.046010020762     
-0.0751045999671    
-0.0374375854464    
-0.0389761927232    
-0.0789876903865    
-0.0645299757963    
-0.055401089571     
-0.0462629676336    
-0.0367404517236    
-0.0354138796926    
-0.124214252575     
-0.186754062852     
-0.410589449244     
-0.606928756201     
0.444148196859      
0.433317543284      
0.214500735433      
0.250641918075      
0.111765516364      
0.145871543225      
0.0317574612829     
0.0294692790454     
-0.0465519361387    
-0.0656119275792    
-0.135709544275     
-0.153119031307     
-0.227935594261     
-0.236319159499     
-0.287014562238     
-0.321012291695     
-0.327035593595     
-0.328003167592     
-0.0480184084004    
0.16408938721       
0.424854517015      
0.275409679994      
0.062216850011      
-0.147382391873     
-0.0554681489058    
-0.192200053261     
-0.108428456644     
-0.159902317421     
-0.104515170894     
-0.127093644855     
-0.0844557994932    
-0.0958534654154    
-0.0757345291062    
-0.0794702986703    
-0.0940408011358    
-0.0760893613519    
-0.151539152139     
-0.198017836283     
-0.312260013391     
-0.609768303056     
0.451910638815      
0.415017799985      
0.224801217398      
0.246440542284      
0.125718570006      
0.161634402053      
0.0353947338194     
0.0525054036953     
-0.0471532726499    
-0.0463851627076    
-0.137875619051     
-0.150937375705     
-0.236974816935     
-0.262248745705     
-0.336345861762     
-0.357232348254     
-0.410896737982     
-0.358457504962     
-0.112214473162     
0.0979893926906     
0.449501882714      
0.343517768394      
0.0689955886344     
-0.0813035371444    
-0.0774825218575    
-0.179731826106     
-0.117119766779     
-0.172751809453     
-0.11824451914      
-0.137521446935     
-0.103862473135     
-0.102638446497     
-0.0938725859207    
-0.0743302263739    
-0.102879932221     
-0.0606611729321    
-0.149505383121     
-0.193822090825     
-0.338731364711     
-0.6557131333       
0.462973152385      
0.419752933574      
0.231301491658      
0.236226247934      
0.118516319044      
0.140697451693      
0.0288659697921     
0.0380889419358     
-0.0547865238654    
-0.053736111412     
-0.144811462057     
-0.154208092371     
-0.244365203998     
-0.262398131248     
-0.348403339182     
-0.359146227387     
-0.420861464801     
-0.386876836878     
-0.113961071724     
0.033307506161      
0.462962024992      
0.396160222233      
0.0715654914732     
-0.020984980036     
-0.0848814968659    
-0.138445412415     
-0.127971277425     
-0.150910382645     
-0.131235112609     
-0.127505780978     
-0.119730004748     
-0.0977194905451    
-0.11160073465      
-0.0750008931934    
-0.125825483003     
-0.0686196444131    
-0.155165881509     
-0.179363616786     
-0.299970637143     
-0.560832428782     
0.461289586117      
0.425214856946      
0.237776717505      
0.226153764912      
0.094320967635      
0.118275276751      
0.0153873128888     
0.0234340482926     
-0.0648881354448    
-0.0642259540471    
-0.149176481506     
-0.161122451965     
-0.23980407681      
-0.265151585629     
-0.335282768852     
-0.359971184531     
-0.40029157565      
-0.396913693309     
-0.0860055109479    
0.00623389275362    
0.455986161324      
0.409615986191      
0.0621796471339     
0.0032530615584     
-0.0927099387002    
-0.119068057178     
-0.138917864991     
-0.138775171685     
-0.148827813965     
-0.121299248047     
-0.144466321689     
-0.0956293834383    
-0.143396345635     
-0.077594261453     
-0.177027647144     
-0.0811856641181    
-0.175846754628     
-0.165514566772     
-0.223042617123     
-0.456483172168     
0.438717255918      
0.41172283003       
0.239589550058      
0.224922634664      
0.0798195968456     
0.125323933834      
0.00863339073116    
0.0329007521811     
-0.0679451604467    
-0.0536528124093    
-0.146914744943     
-0.15148229846      
-0.22955505002      
-0.256884291728     
-0.318028930767     
-0.352648263389     
-0.377898387341     
-0.391137680338     
-0.0634487759328    
0.00400350868718    
0.441260830444      
0.401979427615      
0.0517038360659     
0.00300918082286    
-0.0977632632158    
-0.116147045045     
-0.143671483764     
-0.133672197166     
-0.158428023804     
-0.114049156309     
-0.159440330536     
-0.0869527475418    
-0.16374494536      
-0.0695433832031    
-0.211021303771     
-0.0735630991905    
-0.194695160149     
-0.167173116996     
-0.194091895761     
-0.484497127426     
0.420010121967      
0.388597913019      
0.234223858963      
0.226036380484      
0.0806880971999     
0.146500576364      
0.00965853784885    
0.0539375510132     
-0.0657032091167    
-0.0342479835119    
-0.144594850275     
-0.13599039329      
-0.22648526503      
-0.246831003928     
-0.312887923407     
-0.347114570407     
-0.373959078545     
-0.385974775987     
-0.0655276882697    
0.00720591141934    
0.432919242414      
0.392146679008      
0.0504160972854     
-0.00409335742952   
-0.0956244651835    
-0.118495076167     
-0.140660495872     
-0.130474063006     
-0.157340774605     
-0.106047030845     
-0.158199965648     
-0.0750436833268    
-0.162343951736     
-0.0542402817503    
-0.208908597524     
-0.0526171543397    
-0.199034711886     
-0.172104412195     
-0.214308853519     
-0.570555591521     
0.405083837407      
0.379722414472      
0.229848409117      
0.225935736345      
0.0831282037672     
0.159046091748      
0.0171837211921     
0.0688531361147     
-0.0557873906851    
-0.0251517544819    
-0.140727686973     
-0.131394578631     
-0.230957903494     
-0.246570739279     
-0.31342674196      
-0.351350677561     
-0.373769041294     
-0.392636458585     
-0.0659534972359    
0.00144092130756    
0.431078590381      
0.39313314215       
0.0486230617844     
-0.00166348846964   
-0.0978582642976    
-0.115294053229     
-0.148808131172     
-0.127543223579     
-0.1633422882       
-0.104951322691     
-0.158082560014     
-0.0722328283628    
-0.161520883165     
-0.0445085778189    
-0.211929388434     
-0.042868389723     
-0.204642623297     
-0.164018786891     
-0.220061101166     
-0.558630022928     
0.405079297151      
0.340288285782      
0.178011207796      
0.228102489057      
0.106612777921      
0.205313943275      
0.060230983597      
0.0980004071659     
-0.00105291243738   
-0.00792659619109   
-0.0869966347258    
-0.117249274182     
-0.193537232855     
-0.234489436548     
-0.305509779532     
-0.348556314239     
-0.374481335712     
-0.396376389705     
-0.0458982070597    
-0.000434911461235  
0.426591382546      
0.39987876172       
0.0229563032764     
0.00568828234319    
-0.109760959097     
-0.102051153158     
-0.138681547797     
-0.114189566197     
-0.124151003676     
-0.0945373731025    
-0.0980605604672    
-0.0600090303463    
-0.0847765136696    
-0.0186466999978    
-0.114657559962     
0.00870456087322    
-0.153368861892     
-0.136406809125     
-0.250416111242     
-0.565331584197     
0.300758859709      
0.349439845189      
0.162565180678      
0.251578605633      
0.102546650197      
0.11600467167       
0.0260441368679     
0.0362739054904     
-0.039434883156     
-0.0265361824464    
-0.106519520802     
-0.100916748857     
-0.185643749391     
-0.185638079532     
-0.279046480577     
-0.267069304873     
-0.376059677218     
-0.363052876499     
-0.00653562799443   
0.00658290173219    
0.465158578999      
0.441120495464      
0.0925633463308     
0.103175587579      
-0.0386046073918    
-0.0286399632084    
-0.0666712201707    
-0.0920176574186    
-0.0537806171595    
-0.108780096802     
-0.0322873319796    
-0.106683073322     
-0.00741410100747   
-0.0946406159156    
0.0284552409792     
-0.0462325779276    
-0.0225133579423    
-0.0678590080739    
-0.171864570531     
-0.384104464076     
-0.0374237555056    
-0.157983278169     
-0.161876015159     
-0.120493396827     
-0.140750247135     
-0.118546084309     
-0.13388813739      
-0.137511218688     
-0.14646617683      
-0.167775066992     
-0.181185721063     
-0.20919239494      
-0.241218324579     
-0.257962728022     
-0.327819600744     
-0.305640388997     
-0.423282438709     
0.0964705114821     
-0.222528455586     
-0.433492153222     
-0.113968926823     
-0.293725866487     
-0.119396028968     
-0.239920444117     
-0.140397548047     
-0.219543725072     
-0.163477893169     
-0.21966205145      
-0.19943400908      
-0.233025380159     
-0.253806003303     
-0.249161809278     
-0.328916395        
-0.260835734868     
-0.486270052111     
0.173202359657      
-0.32801944617      
-0.553879164378     
-0.170984787285     
-0.36438273629      
-0.16492622806      
-0.288215807286     
-0.177942369312     
-0.254005584046     
-0.193427289451     
-0.241924887106     
-0.220320089278     
-0.241304162141     
-0.26243321719      
-0.239092020063     
-0.319458495393     
-0.220317400442     
-0.452174542851     
0.388298775311      
-0.350296810649     
-0.687005235102     
-0.213335845728     
-0.420347155855     
-0.193913652959     
-0.313976080887     
-0.199880703916     
-0.266810193796     
-0.20963535327      
-0.247498191468     
-0.230003318712     
-0.241946343901     
-0.264280605421     
-0.235274811442     
-0.311339616708     
-0.205682802264     
-0.421823298011     
0.569459211735      
-0.255419866203     
-0.712212343932     
-0.21723979092      
-0.386969217576     
-0.161918831982     
-0.261022699555     
-0.157405102408     
-0.210774902726     
-0.162361442877     
-0.185504011836     
-0.173553199689     
-0.165145293936     
-0.185206403363     
-0.120588797676     
-0.174873722851     
0.0288264001882     
-0.0625918699424    
0.694730356608      
0.449995428617      
0.480182777542      
0.207220075804      
0.226502586952      
0.0924613767259     
0.0446651118585     
-0.00620129799044   
-0.0811632876064    
-0.0997144455914    
-0.187623290426     
-0.145584107743     
-0.189212035228     
-0.208892539688     
-0.198425199968     
-0.308546009713     
-0.233714130547     
-0.263684844317     
-0.167790949071     
0.0763217141429     
0.278005953025      
0.491822336755      
0.369666228923      
0.197052371452      
0.0340859334965     
-0.0430120724296    
-0.0996005349204    
-0.0460101314113    
-0.07510490551      
-0.0374376938327    
-0.0389765861744    
-0.0789875684055    
-0.0645302158821    
-0.0554010478842    
-0.0462632429415    
-0.0367409445652    
-0.0354148997702    
-0.124214744239     
-0.186756201233     
-0.410587017896     
-0.60693150903      
0.444148547927      
0.43331778375       
0.21450072654       
0.250641665704      
0.111765463605      
0.145870788998      
0.0317572499216     
0.0294685532697     
-0.046552133323     
-0.065612434334     
-0.135709568626     
-0.15311936363      
-0.227935787417     
-0.236319511627     
-0.287015033511     
-0.321012462341     
-0.32703619616      
-0.328003054506     
-0.048017717744     
0.164089692984      
0.424854871628      
0.275410249063      
0.0622166329793     
-0.147381997448     
-0.0554686217035    
-0.192199868311     
-0.108428682093     
-0.159902357406     
-0.104515386651     
-0.127093875346     
-0.08445602926      
-0.0958537680903    
-0.0757346889597    
-0.0794706245001    
-0.094040722602     
-0.0760894205136    
-0.151539017915     
-0.198017211879     
-0.312257725405     
-0.609763710716     
0.451910763203      
0.415017846835      
0.224801114785      
0.246440643292      
0.12571893766       
0.161634329558      
0.0353947326995     
0.0525050742916     
-0.0471531974224    
-0.0463855195413    
-0.137875537138     
-0.150937486846     
-0.236974857894     
-0.262248883034     
-0.336346039488     
-0.357232519083     
-0.410897200384     
-0.358458014209     
-0.112215119062     
0.0979891502843     
0.449502241533      
0.343518394503      
0.0689952341687     
-0.0813033279464    
-0.0774828597035    
-0.17973162231      
-0.117120122076     
-0.172751818856     
-0.118244804329     
-0.137521717594     
-0.103862588738     
-0.102638602971     
-0.0938724137256    
-0.0743303135274    
-0.10287947545      
-0.0606614068395    
-0.149505424186     
-0.193821306245     
-0.338732256487     
-0.655710828984     
0.462973281915      
0.419752705209      
0.231301108171      
0.236225989705      
0.118516215549      
0.140697217204      
0.0288660034208     
0.038088552161      
-0.054786524869     
-0.0537364436405    
-0.144811295924     
-0.154208135074     
-0.24436526962      
-0.262398101216     
-0.348403551818     
-0.359146132758     
-0.420861550183     
-0.386876909216     
-0.113959477353     
0.0333078374177     
0.462962269579      
0.396160385326      
0.0715654255147     
-0.0209847902548    
-0.0848815021898    
-0.138445189886     
-0.127971593798     
-0.150910497791     
-0.131235434884     
-0.127506101573     
-0.119730012738     
-0.0977196761774    
-0.111600729351     
-0.0750010564587    
-0.125825198735     
-0.0686201351447    
-0.155165306011     
-0.179362688242     
-0.299975227012     
-0.560832211772     
0.461289829932      
0.425215004725      
0.237776962078      
0.226153916189      
0.094321222319      
0.118274365379      
0.0153869552326     
0.0234335087572     
-0.0648882502321    
-0.0642264365962    
-0.149176429729     
-0.161122532758     
-0.239804153969     
-0.265151742172     
-0.335282885782     
-0.359971351753     
-0.400290975155     
-0.396913323138     
-0.0860048102321    
0.0062339754825     
0.455986199039      
0.409616215959      
0.0621798385276     
0.00325393954834    
-0.0927101250379    
-0.119067850585     
-0.138918195762     
-0.138775226609     
-0.14882830751      
-0.121299607984     
-0.144466521227     
-0.0956295330582    
-0.143396251491     
-0.0775944501351    
-0.177028261267     
-0.0811858854668    
-0.175845725102     
-0.165513901323     
-0.223041004878     
-0.4564795982       
0.43871705566       
0.411722633703      
0.239587431532      
0.224921223533      
0.0798166010492     
0.125322729663      
0.00863292555006    
0.032900231899      
-0.067945362769     
-0.0536531151854    
-0.146914673127     
-0.151482260022     
-0.229555124544     
-0.256884305339     
-0.318028706767     
-0.352648595658     
-0.377898815831     
-0.391137779147     
-0.0634491657807    
0.00400364969965    
0.441260745763      
0.401979377421      
0.0517038641265     
0.00300920527315    
-0.0977638158664    
-0.116146739976     
-0.143671843198     
-0.133672277713     
-0.158428744597     
-0.114049571692     
-0.159441536138     
-0.0869530569876    
-0.163745542289     
-0.0695434574876    
-0.211023129088     
-0.0735629783148    
-0.194699607722     
-0.167172809178     
-0.194087908036     
-0.484494541288     
0.420008881463      
0.388597121246      
0.234222902814      
0.226035350264      
0.080687715652      
0.146502026928      
0.0096588925276     
0.0539383934628     
-0.0657027669051    
-0.0342474799738    
-0.144594078018     
-0.135989776328     
-0.226484582406     
-0.246830845323     
-0.312888195666     
-0.347114491252     
-0.373956893641     
-0.385976195905     
-0.0655333808969    
0.00720233674558    
0.432918742151      
0.392145372902      
0.0504156410534     
-0.0040927976637    
-0.0956245386433    
-0.118495297968     
-0.140660522139     
-0.130474108679     
-0.157341201837     
-0.106047211887     
-0.15819960379      
-0.0750431071356    
-0.162344366375     
-0.0542398360303    
-0.208907309333     
-0.0526151773334    
-0.199035193122     
-0.172103022054     
-0.214321862434     
-0.570559909658     
0.405082876916      
0.37972245972       
0.229848647119      
0.225936266196      
0.0831282343405     
0.15904603154       
0.0171828263028     
0.0688522236833     
-0.0557878233102    
-0.0251518058684    
-0.140727072176     
-0.131394298248     
-0.2309569971       
-0.246570409661     
-0.31342701502      
-0.351350960698     
-0.373769735443     
-0.39263674947      
-0.0659489699514    
0.00144409564347    
0.431077979813      
0.393131841122      
0.0486235193341     
-0.00166419266202   
-0.0978581965512    
-0.115294388514     
-0.148808952383     
-0.127543833161     
-0.163343580096     
-0.104951952106     
-0.158083928559     
-0.0722332489257    
-0.161521726915     
-0.0445082080092    
-0.211930495038     
-0.0428694048976    
-0.204640518907     
-0.164017540243     
-0.220053421936     
-0.558623127445     
0.405077645644      
0.340286154129      
0.178010280577      
0.228105678211      
0.106612542634      
0.205314156065      
0.0602301586417     
0.098000356411      
-0.00105295511247   
-0.00792609047442   
-0.0869958623563    
-0.117247991057     
-0.193535602585     
-0.234488091703     
-0.305509952151     
-0.348556399518     
-0.374480055115     
-0.396375580572     
-0.0458936160614    
-0.000431653014862  
0.426590761231      
0.399877465376      
0.0229557123776     
0.00568742792657    
-0.10976079139      
-0.10205112035      
-0.138682306057     
-0.114190101301     
-0.124152003806     
-0.094538422786     
-0.0980608447544    
-0.0600086273947    
-0.0847748892093    
-0.0186450866999    
-0.114654733204     
0.0087057426392     
-0.153365997406     
-0.136407218705     
-0.250408999879     
-0.565326207267     
0.300758094386      
0.349440194695      
0.162564170534      
0.251578895456      
0.102545942615      
0.11600384748       
0.0260441047138     
0.0362729001087     
-0.0394349567045    
-0.0265366372488    
-0.10651933515      
-0.100916602236     
-0.185642468165     
-0.185637373384     
-0.279045469054     
-0.267067697577     
-0.376053415009     
-0.363049507158     
-0.00653394883788   
0.00658399521375    
0.465158323146      
0.441119772237      
0.0925631267312     
0.103174027514      
-0.0386036446502    
-0.028639651873     
-0.0666717253085    
-0.0920186949114    
-0.0537804301114    
-0.108780605043     
-0.0322875153406    
-0.106683786063     
-0.00741525217873   
-0.0946410406728    
0.0284533007766     
-0.0462337089992    
-0.0225117219612    
-0.0678554864397    
-0.171852178029     
-0.384093912256     
-0.0374105589085    
-0.157958807818     
-0.161872209089     
-0.120491246668     
-0.140748124461     
-0.118540189659     
-0.133887427893     
-0.137511547497     
-0.14646611154      
-0.167774327961     
-0.18118497936      
-0.209188111236     
-0.241217133527     
-0.257962924327     
-0.327818687922     
-0.30564570349      
-0.423281955521     
0.0964568640225     
-0.222538254026     
-0.43338917969      
-0.113964405588     
-0.293715555746     
-0.119391996739     
-0.239904923274     
-0.140393392815     
-0.219537437243     
-0.163477738331     
-0.219660862895     
-0.199434254822     
-0.233021976578     
-0.253803714022     
-0.249153071946     
-0.328915529291     
-0.260835134656     
-0.486268757502     
0.173200332001      
-0.328028173828     
-0.55387107985      
-0.170981656678     
-0.364388589731     
-0.164927623218     
-0.288213263165     
-0.177940746341     
-0.254003093595     
-0.193427133241     
-0.241924384571     
-0.220320562376     
-0.241303282691     
-0.262431489617     
-0.239090774733     
-0.319456819115     
-0.220322756081     
-0.452177326526     
0.388289345554      
-0.35027398213      
-0.686930571911     
-0.213332761051     
-0.42034644         