# vtk DataFile Version 3.0
PyPan results file. Generated by PyPan, USU AeroLab (c) 2020.
ASCII
DATASET POLYDATA
POINTS 492 float
-4.75               -4.0                0.0                 
-4.75               4.0                 0.0                 
-4.7255282402       -4.00441503525      -0.00143460487016   
-4.7255282402       -4.00441503525      0.00143460487016    
-4.7255282402       -4.00272893906      -0.00375584419817   
-4.7255282402       -4.00272893906      0.00375584419817    
-4.7255282402       -4.0                -0.00464247865602   
-4.7255282402       -4.0                0.00464247865602    
-4.7255282402       4.0                 -0.00464247865602   
-4.7255282402       4.0                 0.00464247865602    
-4.7255282402       4.00272893906       -0.00375584419817   
-4.7255282402       4.00272893906       0.00375584419817    
-4.7255282402       4.00441503525       -0.00143460487016   
-4.7255282402       4.00441503525       0.00143460487016    
-4.6545085907       -4.01323318481      -0.00429976172745   
-4.6545085907       -4.01323318481      0.00429976172745    
-4.6545085907       -4.00817871094      -0.0112569229677    
-4.6545085907       -4.00817871094      0.0112569229677     
-4.6545085907       -4.0                -0.0139143215492    
-4.6545085907       -4.0                0.0139143215492     
-4.6545085907       4.0                 -0.0139143215492    
-4.6545085907       4.0                 0.0139143215492     
-4.6545085907       4.00817871094       -0.0112569229677    
-4.6545085907       4.00817871094       0.0112569229677     
-4.6545085907       4.01323318481       -0.00429976172745   
-4.6545085907       4.01323318481       0.00429976172745    
-4.65211296082      -3.90211296082      0.0                 
-4.65211296082      3.90211296082       0.0                 
-4.62764120102      -3.90211296082      -0.00464247865602   
-4.62764120102      -3.90211296082      0.00464247865602    
-4.62764120102      3.90211296082       -0.00464247865602   
-4.62764120102      3.90211296082       0.00464247865602    
-4.55662155151      -3.90211296082      -0.0139143215492    
-4.55662155151      -3.90211296082      0.0139143215492     
-4.55662155151      3.90211296082       -0.0139143215492    
-4.55662155151      3.90211296082       0.0139143215492     
-4.54389286041      -4.02558851242      -0.00831415317953   
-4.54389286041      -4.02558851242      0.00831415317953    
-4.54389286041      -4.01581430435      -0.0217667371035    
-4.54389286041      -4.01581430435      0.0217667371035     
-4.54389286041      -4.0                -0.0269051659852    
-4.54389286041      -4.0                0.0269051659852     
-4.54389286041      4.0                 -0.0269051659852    
-4.54389286041      4.0                 0.0269051659852     
-4.54389286041      4.01581430435       -0.0217667371035    
-4.54389286041      4.01581430435       0.0217667371035     
-4.54389286041      4.02558851242       -0.00831415317953   
-4.54389286041      4.02558851242       0.00831415317953    
-4.44600582123      -3.90211296082      -0.0269051659852    
-4.44600582123      -3.90211296082      0.0269051659852     
-4.44600582123      3.90211296082       -0.0269051659852    
-4.44600582123      3.90211296082       0.0269051659852     
-4.4045085907       -4.03891468048      -0.0126441745088    
-4.4045085907       -4.03891468048      0.0126441745088     
-4.4045085907       -4.02405071259      -0.0331028774381    
-4.4045085907       -4.02405071259      0.0331028774381     
-4.4045085907       -4.0                -0.0409174077213    
-4.4045085907       -4.0                0.0409174077213     
-4.4045085907       4.0                 -0.0409174077213    
-4.4045085907       4.0                 0.0409174077213     
-4.4045085907       4.02405071259       -0.0331028774381    
-4.4045085907       4.02405071259       0.0331028774381     
-4.4045085907       4.03891468048       -0.0126441745088    
-4.4045085907       4.03891468048       0.0126441745088     
-4.36803388596      -3.61803388596      0.0                 
-4.36803388596      3.61803388596       0.0                 
-4.34356212616      -3.61803388596      -0.00464247865602   
-4.34356212616      -3.61803388596      0.00464247865602    
-4.34356212616      3.61803388596       -0.00464247865602   
-4.34356212616      3.61803388596       0.00464247865602    
-4.30662155151      -3.90211296082      -0.0409174077213    
-4.30662155151      -3.90211296082      0.0409174077213     
-4.30662155151      3.90211296082       -0.0409174077213    
-4.30662155151      3.90211296082       0.0409174077213     
-4.27254247665      -3.61803388596      -0.0139143215492    
-4.27254247665      -3.61803388596      0.0139143215492     
-4.27254247665      3.61803388596       -0.0139143215492    
-4.27254247665      3.61803388596       0.0139143215492     
-4.25               -4.05034923553      -0.0163594372571    
-4.25               -4.05034923553      0.0163594372571     
-4.25               -4.03111743927      -0.0428295619786    
-4.25               -4.03111743927      0.0428295619786     
-4.25               -4.0                -0.0529402531683    
-4.25               -4.0                0.0529402531683     
-4.25               4.0                 -0.0529402531683    
-4.25               4.0                 0.0529402531683     
-4.25               4.03111743927       -0.0428295619786    
-4.25               4.03111743927       0.0428295619786     
-4.25               4.05034923553       -0.0163594372571    
-4.25               4.05034923553       0.0163594372571     
-4.16192674637      -3.61803388596      -0.0269051659852    
-4.16192674637      -3.61803388596      0.0269051659852     
-4.16192674637      3.61803388596       -0.0269051659852    
-4.16192674637      3.61803388596       0.0269051659852     
-4.15211296082      -3.90211296082      -0.0529402531683    
-4.15211296082      -3.90211296082      0.0529402531683     
-4.15211296082      3.90211296082       -0.0529402531683    
-4.15211296082      3.90211296082       0.0529402531683     
-4.0954914093       -4.05665874481      -0.0184096004814    
-4.0954914093       -4.05665874481      0.0184096004814     
-4.0954914093       -4.03501701355      -0.0481969565153    
-4.0954914093       -4.03501701355      0.0481969565153     
-4.0954914093       -4.0                -0.0595747157931    
-4.0954914093       -4.0                0.0595747157931     
-4.0954914093       4.0                 -0.0595747157931    
-4.0954914093       4.0                 0.0595747157931     
-4.0954914093       4.03501701355       -0.0481969565153    
-4.0954914093       4.03501701355       0.0481969565153     
-4.0954914093       4.05665874481       -0.0184096004814    
-4.0954914093       4.05665874481       0.0184096004814     
-4.02254247665      -3.61803388596      -0.0409174077213    
-4.02254247665      -3.61803388596      0.0409174077213     
-4.02254247665      3.61803388596       -0.0409174077213    
-4.02254247665      3.61803388596       0.0409174077213     
-3.99760460854      -3.90211296082      -0.0595747157931    
-3.99760460854      -3.90211296082      0.0595747157931     
-3.99760460854      3.90211296082       -0.0595747157931    
-3.99760460854      3.90211296082       0.0595747157931     
-3.95610737801      -4.05488920212      -0.0178346466273    
-3.95610737801      -4.05488920212      0.0178346466273     
-3.95610737801      -4.03392362595      -0.046691711992     
-3.95610737801      -4.03392362595      0.046691711992      
-3.95610737801      -4.0                -0.0577141307294    
-3.95610737801      -4.0                0.0577141307294     
-3.95610737801      4.0                 -0.0577141307294    
-3.95610737801      4.0                 0.0577141307294     
-3.95610737801      4.03392362595       -0.046691711992     
-3.95610737801      4.03392362595       0.046691711992      
-3.95610737801      4.05488920212       -0.0178346466273    
-3.95610737801      4.05488920212       0.0178346466273     
-3.92557048798      -3.17557048798      0.0                 
-3.92557048798      3.17557048798       0.0                 
-3.90109872818      -3.17557048798      -0.00464247865602   
-3.90109872818      -3.17557048798      0.00464247865602    
-3.90109872818      3.17557048798       -0.00464247865602   
-3.90109872818      3.17557048798       0.00464247865602    
-3.86803388596      -3.61803388596      -0.0529402531683    
-3.86803388596      -3.61803388596      0.0529402531683     
-3.86803388596      3.61803388596       -0.0529402531683    
-3.86803388596      3.61803388596       0.0529402531683     
-3.85822033882      -3.90211296082      -0.0577141307294    
-3.85822033882      -3.90211296082      0.0577141307294     
-3.85822033882      3.90211296082       -0.0577141307294    
-3.85822033882      3.90211296082       0.0577141307294     
-3.8454914093       -4.0437951088       -0.0142299029976    
-3.8454914093       -4.0437951088       0.0142299029976     
-3.8454914093       -4.02706670761      -0.037254370749     
-3.8454914093       -4.02706670761      0.037254370749      
-3.8454914093       -4.0                -0.0460489317775    
-3.8454914093       -4.0                0.0460489317775     
-3.8454914093       4.0                 -0.0460489317775    
-3.8454914093       4.0                 0.0460489317775     
-3.8454914093       4.02706670761       -0.037254370749     
-3.8454914093       4.02706670761       0.037254370749      
-3.8454914093       4.0437951088        -0.0142299029976    
-3.8454914093       4.0437951088        0.0142299029976     
-3.83007907867      -3.17557048798      -0.0139143215492    
-3.83007907867      -3.17557048798      0.0139143215492     
-3.83007907867      3.17557048798       -0.0139143215492    
-3.83007907867      3.17557048798       0.0139143215492     
-3.7744717598       -4.0246257782       -0.00800147373229   
[...]
CELL_DATA 980
SCALARS pressure_coefficient float 1
LOOKUP_TABLE default
0.425819874152      
0.521662534971      
0.306082729784      
0.323019390516      
0.162468395411      
0.0962827700604     
0.0307811528225     
-0.0604473744462    
-0.0881781859381    
-0.189076973203     
-0.154601349245     
-0.206486085189     
-0.239874726798     
-0.235802069875     
-0.372068884878     
-0.29982436124      
-0.379038772139     
-0.272074599561     
-0.0905587082322    
0.164442722276      
0.530608748771      
0.457767197342      
0.28860301229       
0.12925492474       
0.0263620971994     
-0.0309176786147    
-0.00312083237875   
-0.0319369466626    
-0.0150020655272    
-0.0179270123473    
-0.073992945667     
-0.061096284094     
-0.0739992765229    
-0.0679862094926    
-0.0955825086061    
-0.107341391844     
-0.283722520733     
-0.412601260021     
-0.884871187114     
-1.42279695236      
0.427563709891      
0.469270223747      
0.290562254654      
0.325597039036      
0.170254950442      
0.203470817106      
0.072256611141      
0.0650285846056     
-0.0240691579456    
-0.0521032717108    
-0.133933418838     
-0.161548590907     
-0.252555409026     
-0.270022065352     
-0.349422273469     
-0.390194087538     
-0.451445879513     
-0.457032014367     
-0.255124436846     
0.00444111156826    
0.463397072637      
0.382387015675      
0.162710206854      
-0.0354484530249    
0.0126253644504     
-0.120738704231     
-0.0680313232633    
-0.118168454061     
-0.0885457211033    
-0.109744782125     
-0.0914466809036    
-0.103034130387     
-0.107421640905     
-0.115484502674     
-0.159417625115     
-0.149720495854     
-0.276108611185     
-0.352995510455     
-0.653981762049     
-1.15369335777      
0.447328020559      
0.465978432835      
0.297433850317      
0.313646389341      
0.181118083691      
0.214222609189      
0.0748933719325     
0.0903676429716     
-0.0230404595859    
-0.025475070906     
-0.132204298279     
-0.150723543285     
-0.25735459617      
-0.289685117217     
-0.397042867606     
-0.426722774152     
-0.542294937807     
-0.499286413749     
-0.340786237363     
-0.0974017800627    
0.478814476141      
0.433086140507      
0.168507384749      
0.0269364950579     
-0.0128422690962    
-0.113722269354     
-0.0824012451916    
-0.139133156619     
-0.106694201378     
-0.128769366441     
-0.112472854082     
-0.11487838344      
-0.1236405671       
-0.108185275338     
-0.162750438236     
-0.124995387891     
-0.263166288693     
-0.329159841014     
-0.661066056245     
-1.14431976934      
0.450125492919      
0.470896050903      
0.303434186142      
0.303531435859      
0.173772102894      
0.192413507831      
0.0677805838496     
0.0747367114133     
-0.0310976011642    
-0.0325599586432    
-0.139115113659     
-0.151846000123     
-0.264058591203     
-0.286670015076     
-0.407583973139     
-0.425871594325     
-0.551079181683     
-0.529095760226     
-0.341990812314     
-0.179544029256     
0.491111761949      
0.465720422322      
0.170745149826      
0.0812046867871     
-0.0204862813061    
-0.0757668545905    
-0.093795571804     
-0.119203703152     
-0.120179817764     
-0.119505432325     
-0.128647873097     
-0.109662572669     
-0.141632175719     
-0.107778436785     
-0.186466306459     
-0.131773802266     
-0.26708161922      
-0.307687166058     
-0.607731701394     
-1.00966699153      
0.413717121247      
0.467539400443      
0.30787029359       
0.293212545953      
0.149890101337      
0.169895475468      
0.0539354037408     
0.0594838261878     
-0.0416084352487    
-0.0435066706251    
-0.143670409472     
-0.158837920215     
-0.25890588079      
-0.28891787495      
-0.39252438223      
-0.425386268785     
-0.526720700816     
-0.537666782963     
-0.305400102        
-0.209350780042     
0.486316348977      
0.46948982092       
0.161050713008      
0.101889943018      
-0.0285392204619    
-0.0578075139359    
-0.104875232767     
-0.107459275132     
-0.138308180272     
-0.113148549702     
-0.15441804839      
-0.107190295955     
-0.17511685947      
-0.109952554897     
-0.24147296401      
-0.144561398881     
-0.288872692849     
-0.289825834778     
-0.509569010856     
-0.873483641369     
0.362833073281      
0.45114807542       
0.306482774971      
0.289487539799      
0.134931635783      
0.175638503355      
0.0467626430174     
0.0685754584305     
-0.0448006477466    
-0.032722757263     
-0.141165873533     
-0.148618241359     
-0.247743884327     
-0.279732945033     
-0.373270304154     
-0.416578783426     
-0.500453372281     
-0.529308967212     
-0.274627218617     
-0.208345957044     
0.473371491725      
0.460427542019      
0.149762861707      
0.10004703676       
-0.0341491985179    
-0.0557692362523    
-0.109810656778     
-0.102674244447     
-0.148106485787     
-0.105707180569     
-0.16979606628      
-0.0978368788695    
-0.196125997331     
-0.100721916567     
-0.277098777635     
-0.134861666585     
-0.307945005339     
-0.289714916807     
-0.469582556569     
-0.904505408413     
0.342157865865      
0.431472725523      
0.298112278502      
0.287452876766      
0.135072673025      
0.195170912466      
0.0477169701133     
0.0895196637427     
-0.0421412967295    
-0.0127288901233    
-0.138152454994     
-0.132266064575     
-0.24392086922      
-0.268709565136     
-0.367241710733     
-0.409908887582     
-0.494995797267     
-0.522111006073     
-0.274477975123     
-0.20151289339      
0.464303504392      
0.452362045413      
0.147116942962      
0.0922834863488     
-0.0328054410121    
-0.0588017256175    
-0.107072039706     
-0.0998789754002    
-0.146855774185     
-0.0976442258896    
-0.167939154282     
-0.0852287243999    
-0.193362605012     
-0.0837909998216    
-0.27194378276      
-0.110230363635     
-0.308988751577     
-0.293213093812     
-0.488799708816     
-1.00846436113      
0.335011727778      
0.417760210772      
0.288887225193      
0.284043396831      
0.136933900054      
0.207214767632      
0.0557906938971     
0.104970974574      
-0.0305307121005    
-0.00275136411874   
-0.132011187535     
-0.126871626962     
-0.246314213161     
-0.267764180693     
-0.366233181794     
-0.41350465944      
-0.492684032185     
-0.527865918078     
-0.271035258222     
-0.206065803762     
0.463017323762      
0.452503218798      
0.143548348698      
0.0933171678803     
-0.0368301380936    
-0.0568295667082    
-0.116688259361     
-0.0980729910844    
-0.153886991534     
-0.0974825858626    
-0.167805934531     
-0.0828911443806    
-0.190552378403     
-0.0733516730043    
-0.268963459357     
-0.0974564802479    
-0.305638105839     
-0.280305194398     
-0.478775690341     
-0.982872863914     
0.415568113559      
0.397350400848      
0.2339170313        
0.281764713482      
0.154133589831      
0.250455697337      
0.0960647243126     
0.133785700798      
0.0244824820043     
0.0155117028309     
-0.0749624471108    
-0.110540581703     
-0.202423697858     
-0.25271085849      
-0.350472792641     
-0.407308434403     
-0.485583521391     
-0.527656939051     
-0.236768634407     
-0.20270565503      
0.465484828299      
0.456369325611      
0.114877150837      
0.0964513179445     
-0.0544967290713    
-0.0480204925833    
-0.113365737564     
-0.089151528872     
-0.120859855757     
-0.0913811487438    
-0.110751398024     
-0.0742349184551    
-0.111500431912     
-0.0490068836954    
-0.160338279693     
-0.0420599363063    
-0.232170030579     
-0.238980008543     
-0.459866060081     
-0.932983280312     
0.350631166019      
0.40345904507       
0.209240722049      
0.303470433098      
0.143737592446      
0.160764231066      
0.0583095303173     
0.0691257332951     
-0.0169381942007    
-0.00447216633913   
-0.0954108692646    
-0.0920987271873    
-0.190913026143     
-0.19735097528      
-0.31224125896      
-0.314106136802     
-0.472919273128     
-0.481758538771     
-0.173692977855     
-0.182435123047     
0.493698642155      
0.488624643919      
0.171265453792      
0.178819089336      
0.00248678354736    
0.0129983932618     
-0.0504767031629    
-0.0745677417497    
-0.0535573649947    
-0.108357028819     
-0.0430033006054    
-0.119409334451     
-0.0273658056152    
-0.120379764376     
-0.00406584766202   
-0.0917289354709    
-0.0791300857527    
-0.154191202062     
-0.296803034091     
-0.619882691834     
-0.0494439502488    
-0.173053336272     
-0.17616136002      
-0.124595387917     
-0.150365948755     
-0.119572012326     
-0.142242801603     
-0.140637689518     
-0.15576969606      
-0.175789912532     
-0.194163958542     
-0.225650579851     
-0.262627116075     
-0.290312219334     
-0.368199989389     
-0.377971844964     
-0.521374521243     
-0.0840225799865    
-0.331506566596     
-0.557677595853     
-0.161987219427     
-0.373788831905     
-0.163095856674     
-0.299376298734     
-0.180414196541     
-0.267579220347     
-0.201691620183     
-0.26193778408      
-0.238327174221     
-0.274665883928     
-0.297523190299     
-0.296432956747     
-0.385108259724     
-0.326046543615     
-0.583830932749     
0.00525180967336    
-0.498591795152     
-0.736600474373     
-0.244767666824     
-0.479511092478     
-0.23252418155      
-0.373649667751     
-0.239410251726     
-0.322317735392     
-0.250438563068     
-0.29954075813      
-0.274933982748     
-0.292866170707     
-0.318115281077     
-0.289535991637     
-0.382828413596     
-0.27713699715      
-0.545031623999     
0.291373207482      
-0.509585355148     
-0.906227586467     
-0.296120432732     
-0.54886101805      
-0.26811432175      
-0.405385805562     
-0.265645507481     
-0.337113206955     
-0.268741922553     
-0.303639141903     
-0.283986917981     
-0.287709188358     
-0.315428967931     
-0.273562713727     
-0.363823978766     
-0.237191394572     
-0.482965696431     
0.57210452292       
-0.329501619697     
-0.899814854264     
-0.249294814762     
-0.479159582313     
-0.18869968499      
-0.318065685403     
-0.18216146656      
-0.24825211518      
-0.183932650651     
-0.207961362301     
-0.189148333287     
-0.172589506176     
-0.190460897271     
-0.108856975922     
-0.161728846623     
0.0742208621077     
-0.011980267292     
0.773606772335      
0.425820816525      
0.521662921501      
0.306082709139      
0.323018661556      
0.162468132438      
0.0962825273319     
0.0307811392326     
-0.0604473514799    
-0.0881780676524    
-0.189076892072     
-0.154601355086     
-0.206486171033     
-0.239874785767     
-0.235802275179     
-0.372068794164     
-0.299824575257     
-0.379038766177     
-0.272074770564     
-0.0905586172297    
0.164443085286      
0.530609050711      
0.457767431245      
0.28860268029       
0.129254654699      
0.0263620702353     
-0.0309178231033    
-0.00312091863073   
-0.031937160984     
-0.0150021617187    
-0.0179272889039    
-0.0739928777913    
-0.061096450565     
-0.0739992447192    
-0.0679863816227    
-0.0955828658969    
-0.107342074013     
-0.283722899252     
-0.412602767285     
-0.884868041317     
-1.42279847383      
0.427564472142      
0.469270631742      
0.290562303137      
0.325596968123      
0.170254931477      
0.203470336737      
0.0722564555062     
0.065028086448      
-0.0240692886937    
-0.0521036104322    
-0.133933389344     
-0.161548804264     
-0.252555549322     
-0.270022333242     
-0.349422631691     
-0.390194232679     
-0.45144639897      
-0.457031912318     
-0.255123586526     
0.00444143097466    
0.463397409526      
0.382387384048      
0.162710065337      
-0.0354481916367    
0.0126250162643     
-0.12073856825      
-0.0680314972772    
-0.118168483955     
-0.0885459008383    
-0.109744978445     
-0.0914468620877    
-0.10303435948      
-0.107421761398     
-0.115484731822     
-0.159417550349     
-0.149720482757     
-0.276108640946     
-0.352995110333     
-0.653978916504     
-1.15368866542      
0.447328728484      
0.465978650279      
0.297433828448      
0.313646607071      
0.181118448728      
0.21422271565       
0.0748933710841     
0.0903674410507     
-0.023040374948     
-0.0254753300322    
-0.13220418573      
-0.15072357103      
-0.257354558896     
-0.289685197413     
-0.397042931855     
-0.426722920309     
-0.542295371567     
-0.49928692534      
-0.340787175779     
-0.0974020142489    
0.478814763042      
0.433086483501      
0.168507146637      
0.0269365717868     
-0.0128425043566    
-0.113722162807     
-0.0824015142611    
-0.139133195116     
-0.106694444836     
-0.128769618318     
-0.112472953594     
-0.114878505537     
-0.123640409689     
-0.108185323467     
-0.162749980833     
-0.124995555915     
-0.263166550606     
-0.329159138216     
-0.661067342798     
-1.14431783735      
0.45012635975       
0.470896149105      
0.303433897151      
0.303531294741      
0.173772024029      
0.192413449018      
0.0677806248946     
0.0747364318734     
-0.0310975966538    
-0.032560206243     
-0.139114929867     
-0.151845977857     
-0.26405863204      
-0.28666993545      
-0.407584172471     
-0.425871448846     
-0.551079273784     
-0.529095756569     
-0.341988798273     
-0.179543399614     
0.491112028004      
0.465720551622      
0.170745124036      
0.0812047625922     
-0.0204862725217    
-0.0757667198726    
-0.0937958444777    
-0.119203849407     
-0.120180105784     
-0.119505746532     
-0.128647863497     
-0.109662733614     
-0.141632172356     
-0.107778570299     
-0.186465939291     
-0.131774200649     
-0.267081061782     
-0.30768632078      
-0.60773813254      
-1.00966773595      
0.413717495563      
0.467539563512      
0.307870525776      
0.293212735495      
0.149890337289      
0.169894656563      
0.0539350293276     
0.0594833422292     
-0.0416085740394    
-0.0435071198947    
-0.143670366183     
-0.158837972495     
-0.258905959424     
-0.288918012372     
-0.392524518615     
-0.425386426597     
-0.526720063741     
-0.537666335936     
-0.30539932055      
-0.209350649937     
0.486316504576      
0.469489967152      
0.161050799168      
0.101890658969      
-0.028539409746     
-0.0578073344513    
-0.104875561824     
-0.107459331087     
-0.138308688875     
-0.113148893766     
-0.154418277951     
-0.107190428728     
-0.175116808276     
-0.10995274311      
-0.241473765042     
-0.144561626021     
-0.288871587469     
-0.289825157859     
-0.509567008552     
-0.873479568543     
0.362832512457      
0.451147899076      
0.306481021553      
0.289486323442      
0.134928761689      
0.175637388282      
0.0467621369384     
0.0685749704989     
-0.0448008865792    
-0.0327230403108    
-0.141165811219     
-0.148618182028     
-0.247743937756     
-0.279732941679     
-0.373270034064     
-0.416579133717     
-0.500453897002     
-0.529309092135     
-0.274627627647     
-0.208345912326     
0.473371420635      
0.460427472617      
0.149762793543      
0.100047025366      
-0.0341497498649    
-0.055768966911     
-0.109811013901     
-0.102674317025     
-0.148107221163     
-0.105707573869     
-0.169797355696     
-0.0978371669459    
-0.196126676961     
-0.100721951649     
-0.277100896464     
-0.134861532432     
-0.307950085155     
-0.289714589227     
-0.469577535077     
-0.904502691678     
0.342154854472      
0.43147223956       
0.298111431065      
0.287451832944      
0.135072306125      
0.195172354112      
0.0477172889243     
0.089520524402      
-0.0421408921637    
-0.0127283782458    
-0.138151706158     
-0.132265423194     
-0.243920206603     
-0.268709391286     
-0.367242064363     
-0.409908826872     
-0.494993497255     
-0.52211275451      
-0.274486090211     
-0.201518520163     
0.464303207949      
0.452361383133      
0.147116556296      
0.0922838326427     
-0.0328055526362    
-0.0588019918374    
-0.10707206737      
-0.0998790308966    
-0.146856183422     
-0.0976443863533    
-0.167938780759     
-0.085228106058     
-0.193363035546     
-0.0837904761875    
-0.271942351471     
-0.110228192016     
-0.308989463439     
-0.293211795829     
-0.488817086258     
-1.00847112259      
0.335009658681      
0.417759943526      
0.288887358426      
0.284043866693      
0.136933823271      
0.207214747972      
0.0557897744621     
0.10497007439       
-0.030531147953     
-0.00275143962287   
-0.132010582724     
-0.126871373592     
-0.246313281296     
-0.267763850836     
-0.366233464149     
-0.413504961184     
-0.492684806738     
-0.527866349747     
-0.271029362668     
-0.206061311718     
0.463016958545      
0.452502510876      
0.143548611522      
0.0933165374417     
-0.0368301270954    
-0.0568299116926    
-0.11668907074      
-0.0980735930938    
-0.153888301064     
-0.0974832139464    
-0.167807363722     
-0.0828915705413    
-0.190553310037     
-0.0733513088203    
-0.268964667794     
-0.0974575094221    
-0.305635859371     
-0.28030381818      
-0.478766058018     
-0.982863806613     
0.415567585735      
0.397349001721      
0.233916471102      
0.281767842935      
0.154133457827      
0.250455910152      
0.0960638310118     
0.13378562867       
0.0244824048017     
0.0155122363339     
-0.0749616640954    
-0.110539304541     
-0.202422053149     
-0.252709504833     
-0.350472961459     
-0.407308522524     
-0.48558216204      
-0.527655997975     
-0.236762750145     
-0.20270106887      
0.465484493912      
0.456368726491      
0.114876706633      
0.0964506343187     
-0.0544964569098    
-0.0480204429619    
-0.1133664399       
-0.0891520508636    
-0.120860885225     
-0.0913821997777    
-0.110751835133     
-0.0742345567209    
-0.111498972193     
-0.0490052828979    
-0.160335657616     
-0.04205873347      
-0.232167220053     
-0.238980258984     
-0.45985724053      
-0.932976337675     
0.350631222837      
0.403459718632      
0.209240018341      
0.303471321848      
0.143737094931      
0.160763620762      
0.0583094142012     
0.0691247597952     
-0.0169384506223    
-0.00447256982552   
-0.0954106798681    
-0.0920985733752    
-0.19091163281      
-0.197350304742     
-0.3122402142       
-0.314104480779     
-0.472912643979     
-0.481754861906     
-0.17369102692      
-0.182433902317     
0.49369853796       
0.488624267744      
0.171265503233      
0.17881776575       
0.00248790647501    
0.0129987479598     
-0.0504772887855    
-0.0745688319528    
-0.0535573198031    
-0.108357568228     
-0.0430033643566    
-0.11940994296      
-0.0273668149069    
-0.120380121109     
-0.00406787453228   
-0.0917300446349    
-0.0791284157909    
-0.154187279742     
-0.296788818641     
-0.619871837111     
-0.0494243834207    
-0.173013711871     
-0.176156452986     
-0.124593944371     
-0.150362778837     
-0.119564574211     
-0.142241929677     
-0.14063805636      
-0.155769804197     
-0.175788818064     
-0.194162958767     
-0.225645617035     
-0.262625465178     
-0.290312186224     
-0.368198989773     
-0.377977321106     
-0.521374298453     
-0.0840386221511    
-0.331523666855     
-0.557522842835     
-0.161982293805     
-0.373778117981     
-0.163091249786     
-0.299355339204     
-0.18040830351      
-0.267571405032     
-0.201691109701     
-0.261936298809     
-0.238327426654     
-0.274661805085     
-0.297520166161     
-0.296423291223     
-0.385106585485     
-0.326046082657     
-0.583828452646     
0.00524892067341    
-0.498610179417     
-0.736599485074     
-0.244763999224     
-0.479522016624     
-0.232527779598     
-0.373647517        
-0.23940887529      
-0.322315265125     
-0.250438281837     
-0.299540870802     
-0.274934630387     
-0.292865367148     
-0.318113650138     
-0.289534815877     
-0.382826745995     
-0.277143268477     
-0.545034594473     
0.291360777361      
-0.509554064645     
-0.906118746979     
-0.296118264223     
-0.548861146086     