# vtk DataFile Version 3.0
PyPan results file. Generated by PyPan, USU AeroLab (c) 2020.
ASCII
DATASET POLYDATA
POINTS 492 float
-4.75               -4.0                0.0                 
-4.75               4.0                 0.0                 
-4.7255282402       -4.00441503525      -0.00143460487016   
-4.7255282402       -4.00441503525      0.00143460487016    
-4.7255282402       -4.00272893906      -0.00375584419817   
-4.7255282402       -4.00272893906      0.00375584419817    
-4.7255282402       -4.0                -0.00464247865602   
-4.7255282402       -4.0                0.00464247865602    
-4.7255282402       4.0                 -0.00464247865602   
-4.7255282402       4.0                 0.00464247865602    
-4.7255282402       4.00272893906       -0.00375584419817   
-4.7255282402       4.00272893906       0.00375584419817    
-4.7255282402       4.00441503525       -0.00143460487016   
-4.7255282402       4.00441503525       0.00143460487016    
-4.6545085907       -4.01323318481      -0.00429976172745   
-4.6545085907       -4.01323318481      0.00429976172745    
-4.6545085907       -4.00817871094      -0.0112569229677    
-4.6545085907       -4.00817871094      0.0112569229677     
-4.6545085907       -4.0                -0.0139143215492    
-4.6545085907       -4.0                0.0139143215492     
-4.6545085907       4.0                 -0.0139143215492    
-4.6545085907       4.0                 0.0139143215492     
-4.6545085907       4.00817871094       -0.0112569229677    
-4.6545085907       4.00817871094       0.0112569229677     
-4.6545085907       4.01323318481       -0.00429976172745   
-4.6545085907       4.01323318481       0.00429976172745    
-4.65211296082      -3.90211296082      0.0                 
-4.65211296082      3.90211296082       0.0                 
-4.62764120102      -3.90211296082      -0.00464247865602   
-4.62764120102      -3.90211296082      0.00464247865602    
-4.62764120102      3.90211296082       -0.00464247865602   
-4.62764120102      3.90211296082       0.00464247865602    
-4.55662155151      -3.90211296082      -0.0139143215492    
-4.55662155151      -3.90211296082      0.0139143215492     
-4.55662155151      3.90211296082       -0.0139143215492    
-4.55662155151      3.90211296082       0.0139143215492     
-4.54389286041      -4.02558851242      -0.00831415317953   
-4.54389286041      -4.02558851242      0.00831415317953    
-4.54389286041      -4.01581430435      -0.0217667371035    
-4.54389286041      -4.01581430435      0.0217667371035     
-4.54389286041      -4.0                -0.0269051659852    
-4.54389286041      -4.0                0.0269051659852     
-4.54389286041      4.0                 -0.0269051659852    
-4.54389286041      4.0                 0.0269051659852     
-4.54389286041      4.01581430435       -0.0217667371035    
-4.54389286041      4.01581430435       0.0217667371035     
-4.54389286041      4.02558851242       -0.00831415317953   
-4.54389286041      4.02558851242       0.00831415317953    
-4.44600582123      -3.90211296082      -0.0269051659852    
-4.44600582123      -3.90211296082      0.0269051659852     
-4.44600582123      3.90211296082       -0.0269051659852    
-4.44600582123      3.90211296082       0.0269051659852     
-4.4045085907       -4.03891468048      -0.0126441745088    
-4.4045085907       -4.03891468048      0.0126441745088     
-4.4045085907       -4.02405071259      -0.0331028774381    
-4.4045085907       -4.02405071259      0.0331028774381     
-4.4045085907       -4.0                -0.0409174077213    
-4.4045085907       -4.0                0.0409174077213     
-4.4045085907       4.0                 -0.0409174077213    
-4.4045085907       4.0                 0.0409174077213     
-4.4045085907       4.02405071259       -0.0331028774381    
-4.4045085907       4.02405071259       0.0331028774381     
-4.4045085907       4.03891468048       -0.0126441745088    
-4.4045085907       4.03891468048       0.0126441745088     
-4.36803388596      -3.61803388596      0.0                 
-4.36803388596      3.61803388596       0.0                 
-4.34356212616      -3.61803388596      -0.00464247865602   
-4.34356212616      -3.61803388596      0.00464247865602    
-4.34356212616      3.61803388596       -0.00464247865602   
-4.34356212616      3.61803388596       0.00464247865602    
-4.30662155151      -3.90211296082      -0.0409174077213    
-4.30662155151      -3.90211296082      0.0409174077213     
-4.30662155151      3.90211296082       -0.0409174077213    
-4.30662155151      3.90211296082       0.0409174077213     
-4.27254247665      -3.61803388596      -0.0139143215492    
-4.27254247665      -3.61803388596      0.0139143215492     
-4.27254247665      3.61803388596       -0.0139143215492    
-4.27254247665      3.61803388596       0.0139143215492     
-4.25               -4.05034923553      -0.0163594372571    
-4.25               -4.05034923553      0.0163594372571     
-4.25               -4.03111743927      -0.0428295619786    
-4.25               -4.03111743927      0.0428295619786     
-4.25               -4.0                -0.0529402531683    
-4.25               -4.0                0.0529402531683     
-4.25               4.0                 -0.0529402531683    
-4.25               4.0                 0.0529402531683     
-4.25               4.03111743927       -0.0428295619786    
-4.25               4.03111743927       0.0428295619786     
-4.25               4.05034923553       -0.0163594372571    
-4.25               4.05034923553       0.0163594372571     
-4.16192674637      -3.61803388596      -0.0269051659852    
-4.16192674637      -3.61803388596      0.0269051659852     
-4.16192674637      3.61803388596       -0.0269051659852    
-4.16192674637      3.61803388596       0.0269051659852     
-4.15211296082      -3.90211296082      -0.0529402531683    
-4.15211296082      -3.90211296082      0.0529402531683     
-4.15211296082      3.90211296082       -0.0529402531683    
-4.15211296082      3.90211296082       0.0529402531683     
-4.0954914093       -4.05665874481      -0.0184096004814    
-4.0954914093       -4.05665874481      0.0184096004814     
-4.0954914093       -4.03501701355      -0.0481969565153    
-4.0954914093       -4.03501701355      0.0481969565153     
-4.0954914093       -4.0                -0.0595747157931    
-4.0954914093       -4.0                0.0595747157931     
-4.0954914093       4.0                 -0.0595747157931    
-4.0954914093       4.0                 0.0595747157931     
-4.0954914093       4.03501701355       -0.0481969565153    
-4.0954914093       4.03501701355       0.0481969565153     
-4.0954914093       4.05665874481       -0.0184096004814    
-4.0954914093       4.05665874481       0.0184096004814     
-4.02254247665      -3.61803388596      -0.0409174077213    
-4.02254247665      -3.61803388596      0.0409174077213     
-4.02254247665      3.61803388596       -0.0409174077213    
-4.02254247665      3.61803388596       0.0409174077213     
-3.99760460854      -3.90211296082      -0.0595747157931    
-3.99760460854      -3.90211296082      0.0595747157931     
-3.99760460854      3.90211296082       -0.0595747157931    
-3.99760460854      3.90211296082       0.0595747157931     
-3.95610737801      -4.05488920212      -0.0178346466273    
-3.95610737801      -4.05488920212      0.0178346466273     
-3.95610737801      -4.03392362595      -0.046691711992     
-3.95610737801      -4.03392362595      0.046691711992      
-3.95610737801      -4.0                -0.0577141307294    
-3.95610737801      -4.0                0.0577141307294     
-3.95610737801      4.0                 -0.0577141307294    
-3.95610737801      4.0                 0.0577141307294     
-3.95610737801      4.03392362595       -0.046691711992     
-3.95610737801      4.03392362595       0.046691711992      
-3.95610737801      4.05488920212       -0.0178346466273    
-3.95610737801      4.05488920212       0.0178346466273     
-3.92557048798      -3.17557048798      0.0                 
-3.92557048798      3.17557048798       0.0                 
-3.90109872818      -3.17557048798      -0.00464247865602   
-3.90109872818      -3.17557048798      0.00464247865602    
-3.90109872818      3.17557048798       -0.00464247865602   
-3.90109872818      3.17557048798       0.00464247865602    
-3.86803388596      -3.61803388596      -0.0529402531683    
-3.86803388596      -3.61803388596      0.0529402531683     
-3.86803388596      3.61803388596       -0.0529402531683    
-3.86803388596      3.61803388596       0.0529402531683     
-3.85822033882      -3.90211296082      -0.0577141307294    
-3.85822033882      -3.90211296082      0.0577141307294     
-3.85822033882      3.90211296082       -0.0577141307294    
-3.85822033882      3.90211296082       0.0577141307294     
-3.8454914093       -4.0437951088       -0.0142299029976    
-3.8454914093       -4.0437951088       0.0142299029976     
-3.8454914093       -4.02706670761      -0.037254370749     
-3.8454914093       -4.02706670761      0.037254370749      
-3.8454914093       -4.0                -0.0460489317775    
-3.8454914093       -4.0                0.0460489317775     
-3.8454914093       4.0                 -0.0460489317775    
-3.8454914093       4.0                 0.0460489317775     
-3.8454914093       4.02706670761       -0.037254370749     
-3.8454914093       4.02706670761       0.037254370749      
-3.8454914093       4.0437951088        -0.0142299029976    
-3.8454914093       4.0437951088        0.0142299029976     
-3.83007907867      -3.17557048798      -0.0139143215492    
-3.83007907867      -3.17557048798      0.0139143215492     
-3.83007907867      3.17557048798       -0.0139143215492    
-3.83007907867      3.17557048798       0.0139143215492     
-3.7744717598       -4.0246257782       -0.00800147373229   
[...]
CELL_DATA 980
SCALARS pressure_coefficient float 1
LOOKUP_TABLE default
0.278949798691      
0.462811438734      
0.39175624557       
0.411002276451      
0.231060609758      
0.148549613344      
0.0693889800591     
-0.0373636747957    
-0.0740620162209    
-0.187631640605     
-0.160841801673     
-0.220921136004     
-0.268259434001     
-0.270730253899     
-0.433995782287     
-0.364653832058     
-0.497406936283     
-0.379327463385     
-0.281143227021     
0.0311122668085     
0.540454459482      
0.52646155879       
0.373550724512      
0.220301439487      
0.0952302192759     
0.0377869693336     
0.0411933583571     
0.0127718983071     
0.00963706290915    
0.00536516679635    
-0.0663914793024    
-0.055079710121     
-0.0901175452785    
-0.0872930798303    
-0.153408610287     
-0.178978354389     
-0.452601097481     
-0.657122410351     
-1.44718326931      
-2.44121785021      
0.321106958389      
0.43578966139       
0.354521933658      
0.388226338139      
0.226333346588      
0.258825992486      
0.113605286205      
0.101920312853      
0.000601218923486   
-0.0361275161831    
-0.129419059452     
-0.167231414609     
-0.274584741143     
-0.301370173454     
-0.410899978523     
-0.458771073994     
-0.581431285261     
-0.592125423408     
-0.495899380773     
-0.186597461487     
0.46183371447       
0.459203144305      
0.253207925706      
0.0698168020504     
0.0794316830673     
-0.049670672744     
-0.0261555066461    
-0.0747522682401    
-0.0700933207763    
-0.0898784179263    
-0.0958071346561    
-0.107542445632     
-0.13713887675      
-0.149607285465     
-0.225112258077     
-0.22443802185      
-0.408144026983     
-0.519472566576     
-1.05253526672      
-1.80049406638      
0.361553102261      
0.46101891108       
0.358976139243      
0.37106162829       
0.234008648397      
0.264377198304      
0.115038408996      
0.129011354406      
0.00312394061939    
-0.00236494872626   
-0.123800973475     
-0.147739842985     
-0.275048866999     
-0.314624039263     
-0.456728865052     
-0.495770484533     
-0.679558087047     
-0.647891054205     
-0.605205534704     
-0.331917197317     
0.465599238453      
0.484953924785      
0.257601607817      
0.127051884148      
0.050754312899      
-0.0480590676214    
-0.0459504130567    
-0.103488233087     
-0.092538970465     
-0.117313468265     
-0.11845568879      
-0.124551313143     
-0.151446840391     
-0.140352372789     
-0.2227079486       
-0.190129997976     
-0.383147871402     
-0.47342133457      
-1.03302873555      
-1.7144950268       
0.357623658955      
0.46872856512       
0.364810329096      
0.361920557885      
0.226714179873      
0.24213144749       
0.107410945359      
0.112272979314      
-0.00533230655778   
-0.00919639822263   
-0.13066639978      
-0.146699870617     
-0.281025107313     
-0.308332958605     
-0.465615168412     
-0.49194551498      
-0.686813428555     
-0.678866944868     
-0.604892770502     
-0.431960604966     
0.477610678839      
0.496482991102      
0.259811745444      
0.175113631007      
0.0430176261809     
-0.0134064015541    
-0.0577841418753    
-0.085439686161     
-0.106470467812     
-0.108815562502     
-0.134915581854     
-0.119077083524     
-0.169690031069     
-0.138869574705     
-0.247179275764     
-0.195651418964     
-0.38506254188      
-0.444171264486     
-0.962912582989     
-1.53354932577      
0.284924463988      
0.456694185304      
0.367179552131      
0.351620345188      
0.2033666985        
0.219744845127      
0.0932842222283     
0.0965080209269     
-0.016208023067     
-0.0205631551475    
-0.13539661959      
-0.153746147037     
-0.275274132327     
-0.310032492885     
-0.448542690539     
-0.490026598575     
-0.658400114366     
-0.685615070098     
-0.558754229822     
-0.463585193638     
0.47575263935       
0.490983293348      
0.249993086145      
0.192267014511      
0.0347965837763     
0.0031014589845     
-0.0689424986345    
-0.0741148659348    
-0.125077710073     
-0.102324121005     
-0.161671016199     
-0.116221111725     
-0.204828518343     
-0.140598880588     
-0.305991298035     
-0.208615313253     
-0.407879564619     
-0.421985828426     
-0.841944370127     
-1.36266614224      
0.205278578971      
0.438084700633      
0.362532211375      
0.345330687469      
0.188007538369      
0.224045046475      
0.0857042269223     
0.105141670916      
-0.0195335043485    
-0.0096201191739    
-0.132653983166     
-0.142967196489     
-0.263196664905     
-0.29991419642      
-0.427232594944     
-0.479657482249     
-0.628064376462     
-0.674427109722     
-0.519121569704     
-0.458599054539     
0.465091775591      
0.481099522671      
0.237984312373      
0.188929167445      
0.0286380073562     
0.0042633980385     
-0.0740499236677    
-0.0696658451657    
-0.135046404698     
-0.0947108081358    
-0.177412084531     
-0.106192869941     
-0.226441226744     
-0.130149483159     
-0.343162969197     
-0.196713769442     
-0.427012708663     
-0.419921937799     
-0.790024969959     
-1.39659878191      
0.187536610989      
0.424359745393      
0.351583715955      
0.340154433034      
0.187344214436      
0.241661086477      
0.0865474340754     
0.125855108716      
-0.0164871360553    
0.0108804602075     
-0.128957190263     
-0.125794573758     
-0.258606232226     
-0.287920183166     
-0.420279992174     
-0.471800731081     
-0.620989852517     
-0.665009034693     
-0.516402431236     
-0.447487063429     
0.455734456396      
0.475565943818      
0.234079830063      
0.180711039924      
0.0291951177437     
0.000607263455921   
-0.0716002952487    
-0.0672724745605    
-0.133639670654     
-0.0866070705571    
-0.174921477163     
-0.092896857518     
-0.222236378636     
-0.111554313732     
-0.334704424728     
-0.168209715189     
-0.424279251401     
-0.421794999268     
-0.807390097947     
-1.51933918145      
0.204301164665      
0.412288644744      
0.33952931805       
0.334306259042      
0.188849650278      
0.253253162766      
0.095205313686      
0.141841057649      
-0.0032328387557    
0.0217168970028     
-0.120575508635     
-0.119620701485     
-0.258884651379     
-0.28628560294      
-0.417632572963     
-0.474698712313     
-0.616321884343     
-0.669639426596     
-0.508050997107     
-0.449998924583     
0.456529406541      
0.475722501234      
0.229277465436      
0.180603395159      
0.0235816392061     
0.00143431997176    
-0.0826093003914    
-0.0665643046185    
-0.141678783689     
-0.0873723216294    
-0.174749101471     
-0.0910297444533    
-0.217288632808     
-0.100370842684     
-0.32512543986      
-0.152156050817     
-0.410585478419     
-0.403509824439     
-0.776856992885     
-1.47728617108      
0.391765759755      
0.424284513219      
0.285749293364      
0.330459536032      
0.201160373303      
0.294491952118      
0.133123949364      
0.170632230366      
0.0520225891511     
0.0410319372365     
-0.0604292360377    
-0.101190882973     
-0.208652893214     
-0.268295677016     
-0.393735006248     
-0.464938499149     
-0.600485206633     
-0.664857535471     
-0.456368338531     
-0.439150399643     
0.470267759911      
0.478769198732      
0.199195194151      
0.180135489857      
0.0007309855422     
0.00600950012057    
-0.085934688267     
-0.0620293177935    
-0.114902388767     
-0.0855935584346    
-0.120793426251     
-0.0859387725213    
-0.135879924154     
-0.077454971454     
-0.204514486562     
-0.0925369549555    
-0.312353063415     
-0.346455657722     
-0.693432806902     
-1.35324115872      
0.389834373895      
0.443671954566      
0.255545935         
0.353809970695      
0.185955294992      
0.206303371708      
0.0920287000364     
0.103552456859      
0.00715876969672    
0.019504836239      
-0.0825939927953    
-0.0811379277215    
-0.19444820561      
-0.206927475669     
-0.344167559795     
-0.36003005278      
-0.572293351192     
-0.605112179846     
-0.363789525167     
-0.400317768253     
0.49371875441       
0.506096392539      
0.244038607795      
0.248437818702      
0.0433804717017     
0.0545483902314     
-0.0330347671946    
-0.0555429993399    
-0.0516398401642    
-0.105772367508     
-0.0518642688171    
-0.129760913981     
-0.0453913317131    
-0.143759625962     
-0.0347597489721    
-0.135495653079     
-0.134860839223     
-0.241876932196     
-0.428994132042     
-0.879221658027     
-0.0727673723027    
-0.19998428386      
-0.197269220584     
-0.138103228094     
-0.165788772386     
-0.128495243307     
-0.155976496254     
-0.150527124195     
-0.169976276144     
-0.189754845073     
-0.211589927945     
-0.24749799288      
-0.288094766362     
-0.327825157363     
-0.412306680132     
-0.456150990827     
-0.624302150114     
-0.280824653527     
-0.470944903198     
-0.708781855344     
-0.235416490285     
-0.475324741336     
-0.227067684608     
-0.377524721629     
-0.23789441471      
-0.332573990546     
-0.255594309992     
-0.319953226338     
-0.291927144998     
-0.331537970098     
-0.355931332232     
-0.359557298465     
-0.457599128392     
-0.409942406088     
-0.703224284224     
-0.190389043571     
-0.712358677318     
-0.954489606823     
-0.348149914536     
-0.620546980159     
-0.324685425914     
-0.481376822046     
-0.322463596565     
-0.410866623753     
-0.327089241528     
-0.376055950614     
-0.348102543457     
-0.362841143532     
-0.39234567415      
-0.359180826449     
-0.466495653848     
-0.356223122162     
-0.663097936509     
0.160318385883      
-0.703844166872     
-1.1593952016       
-0.402923740483     
-0.699076658434     
-0.362327187072     
-0.514629192075     
-0.348974532566     
-0.423265480758     
-0.343810655508     
-0.374469134219     
-0.353081366658     
-0.347840828637     
-0.381768291103     
-0.32708104262      
-0.43300568342      
-0.286890343456     
-0.564099148849     
0.543992477295      
-0.41186221767      
-1.10821245972      
-0.289587518123     
-0.579996923905     
-0.222268343174     
-0.381125957548     
-0.213012985437     
-0.290796418675     
-0.211135825101     
-0.234969758745     
-0.210077889341     
-0.18447263753      
-0.201093560369     
-0.102113697757     
-0.154705382262     
0.112298543524      
0.0293294608697     
0.831580999916      
0.278950890238      
0.4628116111        
0.39175626584       
0.411001992085      
0.231060439889      
0.148549473114      
0.0693889554278     
-0.0373636627466    
-0.0740619484025    
-0.187631595963     
-0.160841794998     
-0.220921176374     
-0.26825949345      
-0.270730391204     
-0.433995751035     
-0.364653977437     
-0.497406875761     
-0.379327588061     
-0.281143132129     
0.0311125463292     
0.540454699547      
0.526461745565      
0.373550520929      
0.220301286805      
0.0952301920498     
0.037786885291      
0.0411932951977     
0.0127717706258     
0.00963697899702    
0.00536500522564    
-0.0663914655416    
-0.055079802734     
-0.0901175254189    
-0.0872931469809    
-0.153408832195     
-0.178978683417     
-0.452601359911     
-0.657123159404     
-1.44717928709      
-2.44121703067      
0.321108025921      
0.435790131236      
0.35452200128       
0.388226373525      
0.226333347257      
0.258825745041      
0.113605180617      
0.101920031428      
0.00060115297948    
-0.0361276882914    
-0.129418976175     
-0.167231507343     
-0.274584827625     
-0.301370352648     
-0.410900215735     
-0.458771186262     
-0.581431689778     
-0.592125319476     
-0.495898289601     
-0.18659707652      
0.461833980514      
0.459203344541      
0.253207833652      
0.0698169401381     
0.0794314506291     
-0.0496705835049    
-0.0261556291571    
-0.0747522872085    
-0.0700934641424    
-0.0898785793619    
-0.0958072663979    
-0.107542600339     
-0.137138954219     
-0.149607412596     
-0.225112179632     
-0.224437919958     
-0.408144224952     
-0.519472414101     
-1.05253175749      
-1.80048953082      
0.361554373914      
0.461019315137      
0.358976163951      
0.371061905929      
0.234008997227      
0.264377445003      
0.115038404795      
0.129011268457      
0.00312403302761    
-0.00236511287167   
-0.123800830477     
-0.147739786309     
-0.2750487483       
-0.314624057696     
-0.456728802236     
-0.495770597674     
-0.679558464402     
-0.647891547473     
-0.605206757611     
-0.331917347088     
0.465599473785      
0.484954073937      
0.257601451488      
0.127051845022      
0.0507541658726     
-0.0480590526068    
-0.0459506001486    
-0.103488299918     
-0.0925391723706    
-0.117313700948     
-0.118455770917     
-0.124551399085     
-0.151446695959     
-0.14035237607      
-0.222707485455     
-0.19013008099      
-0.383148369154     
-0.473420718105     
-1.03303043249      
-1.71449368551      
0.357625343132      
0.468729096227      
0.364810119745      
0.36192049807       
0.226714117539      
0.242131533753      
0.107410990271      
0.112272800969      
-0.00533229777712   
-0.00919656379032   
-0.130666198677     
-0.146699782969     
-0.281025121102     
-0.308332826401     
-0.465615347953     
-0.491945311973     
-0.68681351548      
-0.678866844649     
-0.604890262935     
-0.431959565264     
0.477610858399      
0.496483132229      
0.259811745581      
0.175113611556      
0.0430176437303     
-0.0134063488819    
-0.0577843734116    
-0.0854398623433    
-0.106470721493     
-0.108815869545     
-0.134915553486     
-0.119077217839     
-0.169690027123     
-0.138869673098     
-0.247178814095     
-0.195651703569     
-0.385062001232     
-0.44417051775      
-0.962921110026     
-1.53355131905      
0.284924956642      
0.456694451589      
0.367179756249      
0.351620547003      
0.203366910888      
0.219744111361      
0.0932838323517     
0.0965075888571     
-0.0162081853313    
-0.0205635714503    
-0.135396584778     
-0.153746170346     
-0.275274211289     
-0.310032609049     
-0.448542844305     
-0.490026743299     
-0.658399436819     
-0.685614536004     
-0.558753362717     
-0.463584989709     
0.475752908767      
0.490983367257      
0.249993087428      
0.192267581159      
0.0347963914502     
0.00310161123093    
-0.0689428256395    
-0.0741149233518    
-0.125078232338     
-0.102324448455     
-0.161671275088     
-0.116221226041     
-0.204828510641     
-0.140599065291     
-0.305992294052     
-0.208615538728     
-0.407878378143     
-0.421985138784     
-0.841941927575     
-1.36266162641      
0.205277604463      
0.438084654508      
0.362530800015      
0.345329647528      
0.188004800503      
0.224044013295      
0.0857036830524     
0.105141212224      
-0.0195337784892    
-0.00962038315073   
-0.132653930421     
-0.142967116231     
-0.263196695798     
-0.299914174489     
-0.427232274361     
-0.479657847789     
-0.628064999182     
-0.674427258883     
-0.519121968972     
-0.45859914002      
0.465091765085      
0.481099451373      
0.237984163385      
0.18892912152       
0.0286374587539     
0.00426363069626    
-0.0740502779903    
-0.0696659107746    
-0.135047152684     
-0.0947111786373    
-0.177413455431     
-0.106193134686     
-0.22644198909      
-0.130149474464     
-0.3431653914       
-0.196713617143     
-0.427018441345     
-0.419921582926     
-0.790018834925     
-1.3965960603       
0.187532131289      
0.424359739733      
0.351582974818      
0.340153392265      
0.187343856648      
0.241662482847      
0.0865477142849     
0.125855977433      
-0.0164867702877    
0.0108809777374     
-0.128956466614     
-0.125793909491     
-0.258605591195     
-0.287919993638     
-0.420280429497     
-0.471800689925     
-0.620987446512     
-0.665011137752     
-0.516413376169     
-0.447495183129     
0.455734055808      
0.47556571301       
0.2340794939        
0.180711200599      
0.0291949694636     
0.000606957216079   
-0.0716003251665    
-0.0672725397792    
-0.133640061307     
-0.0866072103031    
-0.17492109234      
-0.09289619753      
-0.222236823151     
-0.111553708687     
-0.334702844136     
-0.168207342768     
-0.424280216697     
-0.421793832057     
-0.807412397365     
-1.51934889202      
0.2042975635        
0.412287817974      
0.339529330272      
0.33430665173       
0.188849478454      
0.253253176551      
0.0952043762916     
0.141840174266      
-0.00323327643598   
0.0217167981771     
-0.120574915232     
-0.119620475691     
-0.258883695918     
-0.286285273415     
-0.417632863586     
-0.474699032069     
-0.616322742312     
-0.669640016417     
-0.50804359396      
-0.449992915781     
0.456529141645      
0.475722255593      
0.229277560143      
0.18060283383       
0.0235815972988     
0.00143396702854    
-0.0826100994649    
-0.0665648977676    
-0.141680107268     
-0.0873729469009    
-0.17475058843      
-0.0910301750993    
-0.217289652646     
-0.100370485736     
-0.325126751588     
-0.15215708776      
-0.410583097231     
-0.403508322368     
-0.776845272836     
-1.47727472338      
0.391765969247      
0.424283502129      
0.285749005438      
0.330462478726      
0.201160328904      
0.294492157153      
0.133122994208      
0.170632138052      
0.0520224784899     
0.04103249625       
-0.0604284438768    
-0.10118961474      
-0.208651237101     
-0.268294317711     
-0.393735168374     
-0.464938589073     
-0.600483769277     
-0.664856455443     
-0.45636103294      
-0.439144279677     
0.470267495962      
0.478769114682      
0.199194872903      
0.180134960309      
0.00073135097184    
0.00600956628645    
-0.0859353339335    
-0.0620298246683    
-0.11490344432      
-0.0855946080111    
-0.120794016436     
-0.0859384535954    
-0.135878639406     
-0.0774533887168    
-0.204512095989     
-0.0925357369507    
-0.312350340225     
-0.346455720813     
-0.693422132491     
-1.35323248674      
0.389834939916      
0.443672568149      
0.255545501832      
0.353811375657      
0.185954999266      
0.206302966251      
0.0920285051306     
0.103551517161      
0.00715833222996    
0.0195044841647     
-0.0825937975844    
-0.0811377650967    
-0.194446695817     
-0.206926840219     
-0.344166481087     
-0.360028348835     
-0.57228635501      
-0.60510817949      
-0.363787277358     
-0.400316410476     
0.493718646243      
0.506096311628      
0.244038902807      
0.248436714949      
0.0433817398156     
0.0545487911944     
-0.0330354248031    
-0.0555441313708    
-0.0516399310528    
-0.105772933985     
-0.051864198604     
-0.129761408446     
-0.045392182845     
-0.143759905711     
-0.0347618553509    
-0.135496736404     
-0.134859136259     
-0.24187259398      
-0.42897797368      
-0.879210664584     
-0.0727405380837    
-0.199925917065     
-0.197263200273     
-0.138103367034     
-0.165784486906     
-0.128486042956     
-0.155975411408     
-0.150527502469     
-0.169976589776     
-0.189753315666     
-0.211588626065     
-0.247492299251     
-0.288092602396     
-0.32782493435      
-0.412305535632     
-0.456156692916     
-0.624302185651     
-0.280843456412     
-0.470971710708     
-0.708564890028     
-0.235411620753     
-0.475314826867     
-0.227063089486     
-0.377497767626     
-0.237886791665     
-0.332564326261     
-0.255593430956     
-0.319951383891     
-0.291927486866     
-0.331533231884     
-0.355927659315     
-0.359546500768     
-0.457596674347     
-0.409942187842     
-0.703220123908     
-0.190392982058     
-0.712390060989     
-0.954498981472     
-0.348146067939     
-0.62056415249      
-0.324692049399     
-0.481375729167     
-0.322462774752     
-0.410864528838     
-0.32708886734      
-0.376056878704     
-0.348103412048     
-0.3628404836       
-0.392344345307     
-0.359179900985     
-0.466494227948     
-0.356230847879     
-0.663101333739     
0.160301917391      
-0.703803478183     
-1.1592457826       
-0.402923351045     
-0.69907780296      