# vtk DataFile Version 3.0
PyPan results file. Generated by PyPan, USU AeroLab (c) 2020.
ASCII
DATASET POLYDATA
POINTS 492 float
-4.75               -4.0                0.0                 
-4.75               4.0                 0.0                 
-4.7255282402       -4.00441503525      -0.00143460487016   
-4.7255282402       -4.00441503525      0.00143460487016    
-4.7255282402       -4.00272893906      -0.00375584419817   
-4.7255282402       -4.00272893906      0.00375584419817    
-4.7255282402       -4.0                -0.00464247865602   
-4.7255282402       -4.0                0.00464247865602    
-4.7255282402       4.0                 -0.00464247865602   
-4.7255282402       4.0                 0.00464247865602    
-4.7255282402       4.00272893906       -0.00375584419817   
-4.7255282402       4.00272893906       0.00375584419817    
-4.7255282402       4.00441503525       -0.00143460487016   
-4.7255282402       4.00441503525       0.00143460487016    
-4.6545085907       -4.01323318481      -0.00429976172745   
-4.6545085907       -4.01323318481      0.00429976172745    
-4.6545085907       -4.00817871094      -0.0112569229677    
-4.6545085907       -4.00817871094      0.0112569229677     
-4.6545085907       -4.0                -0.0139143215492    
-4.6545085907       -4.0                0.0139143215492     
-4.6545085907       4.0                 -0.0139143215492    
-4.6545085907       4.0                 0.0139143215492     
-4.6545085907       4.00817871094       -0.0112569229677    
-4.6545085907       4.00817871094       0.0112569229677     
-4.6545085907       4.01323318481       -0.00429976172745   
-4.6545085907       4.01323318481       0.00429976172745    
-4.65211296082      -3.90211296082      0.0                 
-4.65211296082      3.90211296082       0.0                 
-4.62764120102      -3.90211296082      -0.00464247865602   
-4.62764120102      -3.90211296082      0.00464247865602    
-4.62764120102      3.90211296082       -0.00464247865602   
-4.62764120102      3.90211296082       0.00464247865602    
-4.55662155151      -3.90211296082      -0.0139143215492    
-4.55662155151      -3.90211296082      0.0139143215492     
-4.55662155151      3.90211296082       -0.0139143215492    
-4.55662155151      3.90211296082       0.0139143215492     
-4.54389286041      -4.02558851242      -0.00831415317953   
-4.54389286041      -4.02558851242      0.00831415317953    
-4.54389286041      -4.01581430435      -0.0217667371035    
-4.54389286041      -4.01581430435      0.0217667371035     
-4.54389286041      -4.0                -0.0269051659852    
-4.54389286041      -4.0                0.0269051659852     
-4.54389286041      4.0                 -0.0269051659852    
-4.54389286041      4.0                 0.0269051659852     
-4.54389286041      4.01581430435       -0.0217667371035    
-4.54389286041      4.01581430435       0.0217667371035     
-4.54389286041      4.02558851242       -0.00831415317953   
-4.54389286041      4.02558851242       0.00831415317953    
-4.44600582123      -3.90211296082      -0.0269051659852    
-4.44600582123      -3.90211296082      0.0269051659852     
-4.44600582123      3.90211296082       -0.0269051659852    
-4.44600582123      3.90211296082       0.0269051659852     
-4.4045085907       -4.03891468048      -0.0126441745088    
-4.4045085907       -4.03891468048      0.0126441745088     
-4.4045085907       -4.02405071259      -0.0331028774381    
-4.4045085907       -4.02405071259      0.0331028774381     
-4.4045085907       -4.0                -0.0409174077213    
-4.4045085907       -4.0                0.0409174077213     
-4.4045085907       4.0                 -0.0409174077213    
-4.4045085907       4.0                 0.0409174077213     
-4.4045085907       4.02405071259       -0.0331028774381    
-4.4045085907       4.02405071259       0.0331028774381     
-4.4045085907       4.03891468048       -0.0126441745088    
-4.4045085907       4.03891468048       0.0126441745088     
-4.36803388596      -3.61803388596      0.0                 
-4.36803388596      3.61803388596       0.0                 
-4.34356212616      -3.61803388596      -0.00464247865602   
-4.34356212616      -3.61803388596      0.00464247865602    
-4.34356212616      3.61803388596       -0.00464247865602   
-4.34356212616      3.61803388596       0.00464247865602    
-4.30662155151      -3.90211296082      -0.0409174077213    
-4.30662155151      -3.90211296082      0.0409174077213     
-4.30662155151      3.90211296082       -0.0409174077213    
-4.30662155151      3.90211296082       0.0409174077213     
-4.27254247665      -3.61803388596      -0.0139143215492    
-4.27254247665      -3.61803388596      0.0139143215492     
-4.27254247665      3.61803388596       -0.0139143215492    
-4.27254247665      3.61803388596       0.0139143215492     
-4.25               -4.05034923553      -0.0163594372571    
-4.25               -4.05034923553      0.0163594372571     
-4.25               -4.03111743927      -0.0428295619786    
-4.25               -4.03111743927      0.0428295619786     
-4.25               -4.0                -0.0529402531683    
-4.25               -4.0                0.0529402531683     
-4.25               4.0                 -0.0529402531683    
-4.25               4.0                 0.0529402531683     
-4.25               4.03111743927       -0.0428295619786    
-4.25               4.03111743927       0.0428295619786     
-4.25               4.05034923553       -0.0163594372571    
-4.25               4.05034923553       0.0163594372571     
-4.16192674637      -3.61803388596      -0.0269051659852    
-4.16192674637      -3.61803388596      0.0269051659852     
-4.16192674637      3.61803388596       -0.0269051659852    
-4.16192674637      3.61803388596       0.0269051659852     
-4.15211296082      -3.90211296082      -0.0529402531683    
-4.15211296082      -3.90211296082      0.0529402531683     
-4.15211296082      3.90211296082       -0.0529402531683    
-4.15211296082      3.90211296082       0.0529402531683     
-4.0954914093       -4.05665874481      -0.0184096004814    
-4.0954914093       -4.05665874481      0.0184096004814     
-4.0954914093       -4.03501701355      -0.0481969565153    
-4.0954914093       -4.03501701355      0.0481969565153     
-4.0954914093       -4.0                -0.0595747157931    
-4.0954914093       -4.0                0.0595747157931     
-4.0954914093       4.0                 -0.0595747157931    
-4.0954914093       4.0                 0.0595747157931     
-4.0954914093       4.03501701355       -0.0481969565153    
-4.0954914093       4.03501701355       0.0481969565153     
-4.0954914093       4.05665874481       -0.0184096004814    
-4.0954914093       4.05665874481       0.0184096004814     
-4.02254247665      -3.61803388596      -0.0409174077213    
-4.02254247665      -3.61803388596      0.0409174077213     
-4.02254247665      3.61803388596       -0.0409174077213    
-4.02254247665      3.61803388596       0.0409174077213     
-3.99760460854      -3.90211296082      -0.0595747157931    
-3.99760460854      -3.90211296082      0.0595747157931     
-3.99760460854      3.90211296082       -0.0595747157931    
-3.99760460854      3.90211296082       0.0595747157931     
-3.95610737801      -4.05488920212      -0.0178346466273    
-3.95610737801      -4.05488920212      0.0178346466273     
-3.95610737801      -4.03392362595      -0.046691711992     
-3.95610737801      -4.03392362595      0.046691711992      
-3.95610737801      -4.0                -0.0577141307294    
-3.95610737801      -4.0                0.0577141307294     
-3.95610737801      4.0                 -0.0577141307294    
-3.95610737801      4.0                 0.0577141307294     
-3.95610737801      4.03392362595       -0.046691711992     
-3.95610737801      4.03392362595       0.046691711992      
-3.95610737801      4.05488920212       -0.0178346466273    
-3.95610737801      4.05488920212       0.0178346466273     
-3.92557048798      -3.17557048798      0.0                 
-3.92557048798      3.17557048798       0.0                 
-3.90109872818      -3.17557048798      -0.00464247865602   
-3.90109872818      -3.17557048798      0.00464247865602    
-3.90109872818      3.17557048798       -0.00464247865602   
-3.90109872818      3.17557048798       0.00464247865602    
-3.86803388596      -3.61803388596      -0.0529402531683    
-3.86803388596      -3.61803388596      0.0529402531683     
-3.86803388596      3.61803388596       -0.0529402531683    
-3.86803388596      3.61803388596       0.0529402531683     
-3.85822033882      -3.90211296082      -0.0577141307294    
-3.85822033882      -3.90211296082      0.0577141307294     
-3.85822033882      3.90211296082       -0.0577141307294    
-3.85822033882      3.90211296082       0.0577141307294     
-3.8454914093       -4.0437951088       -0.0142299029976    
-3.8454914093       -4.0437951088       0.0142299029976     
-3.8454914093       -4.02706670761      -0.037254370749     
-3.8454914093       -4.02706670761      0.037254370749      
-3.8454914093       -4.0                -0.0460489317775    
-3.8454914093       -4.0                0.0460489317775     
-3.8454914093       4.0                 -0.0460489317775    
-3.8454914093       4.0                 0.0460489317775     
-3.8454914093       4.02706670761       -0.037254370749     
-3.8454914093       4.02706670761       0.037254370749      
-3.8454914093       4.0437951088        -0.0142299029976    
-3.8454914093       4.0437951088        0.0142299029976     
-3.83007907867      -3.17557048798      -0.0139143215492    
-3.83007907867      -3.17557048798      0.0139143215492     
-3.83007907867      3.17557048798       -0.0139143215492    
-3.83007907867      3.17557048798       0.0139143215492     
-3.7744717598       -4.0246257782       -0.00800147373229   
[...]
CELL_DATA 980
SCALARS pressure_coefficient float 1
LOOKUP_TABLE default
0.0100340778282     
0.303880544387      
0.463809188973      
0.490015845459      
0.297900621021      
0.20120960479       
0.109433076185      
-0.0120250993963    
-0.0574351102455    
-0.18329444784      
-0.164274959417     
-0.232446557261     
-0.293908019648     
-0.303038977792     
-0.494024586178     
-0.427885871823     
-0.618211643572     
-0.489025985556     
-0.49450207398      
-0.121335418968     
0.521310788855      
0.57541367736       
0.451481336548      
0.306781527081      
0.163256176469      
0.106178286521      
0.0867162220989     
0.0588036846455     
0.0363594881619     
0.0307866026418     
-0.0562203896422    
-0.0465096490696    
-0.1036769037       
-0.104089109388     
-0.209934847148     
-0.249973206734     
-0.63001774792      
-0.919111473455     
-2.09474499845      
-3.6571911347       
0.125287367915      
0.333079305818      
0.406078383381      
0.43823785943       
0.27973126413       
0.3116650662        
0.155601570174      
0.139963463101      
0.0273383608839     
-0.0177628372506    
-0.122188632406     
-0.170139740455     
-0.293916048782     
-0.330210396913     
-0.471147530059     
-0.526408471574     
-0.71635728119      
-0.732624071364     
-0.769168321496     
-0.408094335586     
0.420171288971      
0.50548268292       
0.333267939242      
0.167899404338      
0.144624555029      
0.0206570221266     
0.0169945285759     
-0.029865807336     
-0.0492479712372    
-0.0675915991561    
-0.0975155092314    
-0.109356201676     
-0.164740269186     
-0.181670719975     
-0.2908039264       
-0.299874550676     
-0.547007433244     
-0.696652227168     
-1.50602210362      
-2.54716634444      
0.194994667573      
0.400166556064      
0.409131328044      
0.418413266081      
0.284134718741      
0.311855697887      
0.155634983663      
0.168248140133      
0.03121236353       
0.022832158302      
-0.112706880403     
-0.142001020449     
-0.289971538539     
-0.336943813507     
-0.515112754309     
-0.564038399771     
-0.822016500278     
-0.803546049199     
-0.904182671072     
-0.604412483871     
0.409919681533      
0.498867453765      
0.335843143033      
0.218553712747      
0.112996846302      
0.0169371735694     
-0.00794494774357   
-0.0659909502508    
-0.0758474874323    
-0.103209329003     
-0.121781242612     
-0.131609408907     
-0.177155374953     
-0.170673908505     
-0.28246066513      
-0.255748142028     
-0.508869100187     
-0.625912114653     
-1.45283237355      
-2.36352856279      
0.185913682918      
0.413258968947      
0.415131377043      
0.411111083543      
0.277085224134      
0.289610238895      
0.147564351383      
0.150515240705      
0.0223839079771     
0.0162406504574     
-0.119506582114     
-0.138795020012     
-0.295182228539     
-0.327281571106     
-0.522214228043     
-0.557045947854     
-0.827402699016     
-0.8354601008       
-0.901385924941     
-0.722711657141     
0.422523425947      
0.488297040587      
0.338330614949      
0.26028357616       
0.105320574927      
0.0483318726588     
-0.0201123869481    
-0.049782730131     
-0.0901736021438    
-0.0954879153048    
-0.138502232425     
-0.125916712595     
-0.195637261454     
-0.168122521351     
-0.307668515571     
-0.259941796796     
-0.508535221541     
-0.588154892114     
-1.36379381398      
-2.12995324394      
0.0755399729411     
0.392730411665      
0.415415156406      
0.401092849415      
0.254489856086      
0.267580788765      
0.133241961922      
0.134326386725      
0.0111893039229     
0.00449281139986    
-0.12439543229      
-0.145872017634     
-0.288829045587     
-0.328392639861     
-0.503064658538     
-0.553577214359     
-0.794688050095     
-0.840037512139     
-0.844833835469     
-0.75523058764      
0.424344921663      
0.473990940867      
0.32857249992       
0.273943472315      
0.0969884817121     
0.0633619581741     
-0.0312948604887    
-0.0389043461282    
-0.10920078105      
-0.088878512017     
-0.166189619127     
-0.122677578536     
-0.232386122356     
-0.169383712277     
-0.370267592843     
-0.273035366969     
-0.532287357922     
-0.561352072461     
-1.21855457252      
-1.92165809144      
-0.0331743843453    
0.372594940044      
0.407463904722      
0.392179699271      
0.238787733362      
0.270307588135      
0.125267947194      
0.142421131659      
0.00773294815908    
0.0155424775406     
-0.12142055599      
-0.134556699967     
-0.275837924725     
-0.317329613787     
-0.479652526789     
-0.54157674595      
-0.760109059463     
-0.825784529185     
-0.795740515545     
-0.745536231297     
0.416460204031      
0.46389350845       
0.315937078031      
0.269221766748      
0.0902917679429     
0.0636580098542     
-0.0365638521721    
-0.0348079369288    
-0.119311463204     
-0.0811135575525    
-0.182251030683     
-0.111979824192     
-0.254542323869     
-0.157682438054     
-0.408890722284     
-0.258817755131     
-0.551316801862     
-0.557159791636     
-1.15385993469      
-1.95838218376      
-0.0431005782323    
0.367290569588      
0.394375849892      
0.383883791575      
0.237246634733      
0.285744333755      
0.125959940962      
0.162766532491      
0.0111338742404     
0.0364648543172     
-0.117053912623     
-0.116607441328     
-0.270469505049     
-0.304368990832     
-0.471743663773     
-0.532487914458     
-0.751326124248     
-0.813971491501     
-0.790121021236     
-0.729517226981     
0.407252179925      
0.461643430024      
0.310879475014      
0.260757140412      
0.090074208067      
0.0594417301352     
-0.0344185835849    
-0.0328137390497    
-0.117756980229     
-0.0729893648374    
-0.179112633541     
-0.0980105093397    
-0.248823794292     
-0.137394532018     
-0.396883069162     
-0.226272189364     
-0.544342352488     
-0.557222825541     
-1.16852678809      
-2.10068766429      
0.0135725275557     
0.363329819787      
0.381525223655      
0.376479648113      
0.238621053144      
0.296936512497      
0.135234526732      
0.179283030839      
0.0259726387832     
0.0481334335926     
-0.106476495384     
-0.10967712389      
-0.26860759837      
-0.302044317959     
-0.467373506074     
-0.534633656757     
-0.744078349682     
-0.817264378106     
-0.775843418812     
-0.729168041105     
0.411644978563      
0.462675571806      
0.305390946408      
0.259768095546      
0.0830816698593     
0.0592127090579     
-0.0467378327489    
-0.0331711560539    
-0.126777226656     
-0.0746698244722    
-0.178877820014     
-0.096608584824     
-0.241598324905     
-0.125433595767     
-0.380139681547     
-0.20669968571      
-0.518971447977     
-0.53303246436      
-1.11285348051      
-2.03946347464      
0.333765761045      
0.420970466646      
0.333256358418      
0.373954465729      
0.247464480694      
0.337207105595      
0.171227619579      
0.208359537741      
0.0814329077525     
0.0685093925485     
-0.0434677736292    
-0.0892456505543    
-0.212194046212     
-0.281167393449     
-0.435084662033     
-0.521164506341     
-0.718624670062     
-0.807307513561     
-0.703624815736     
-0.708614725546     
0.440915453489      
0.466967015903      
0.275497978043      
0.256331137943      
0.0556521713353     
0.0597744828573     
-0.0565224803291    
-0.0329555842115    
-0.106307664841     
-0.0772028046392    
-0.128137336922     
-0.0950630009483    
-0.157795264536     
-0.103850915823     
-0.246969460429     
-0.142478571308     
-0.393527471082     
-0.458315691591     
-0.949998953594     
-1.82411444898      
0.418195669634      
0.469956901579      
0.301270518349      
0.402353384541      
0.228996926113      
0.252401271344      
0.127039188729      
0.139387171882      
0.0327400191652     
0.0452787176935     
-0.068130111857     
-0.0680870258574    
-0.196230927509     
-0.214320078171     
-0.374668665965     
-0.404616137927     
-0.673696139179     
-0.732510882228     
-0.575897003514     
-0.646001420686     
0.465217642739      
0.493448693855      
0.310526920578      
0.311690794185      
0.0838762032077     
0.0958063965259     
-0.0144312825136    
-0.0350370108575    
-0.0480382533964    
-0.101039382396     
-0.0588279196253    
-0.137687779164     
-0.0614036843108    
-0.164666233888     
-0.0634776962265    
-0.177318384508     
-0.189434326103     
-0.330486392359     
-0.567836014951     
-1.16103242747      
-0.107244362192     
-0.238629434583     
-0.225080947783     
-0.160936832317     
-0.186931086809     
-0.145262770632     
-0.175014593155     
-0.167124356151     
-0.189010906964     
-0.209596374499     
-0.23337420441      
-0.274623852578     
-0.317493622737     
-0.370315323884     
-0.459922041413     
-0.539794384505     
-0.731561915164     
-0.492976053012     
-0.640183498749     
-0.886108708461     
-0.333895911016     
-0.597836174072     
-0.310989903275     
-0.473976954878     
-0.312550329365     
-0.414205075989     
-0.324917189987     
-0.393420514642     
-0.359967714804     
-0.403360152699     
-0.428741494876     
-0.438223408227     
-0.546031796024     
-0.512110973973     
-0.843864472126     
-0.412765817561     
-0.968391103092     
-1.20659201166      
-0.480657319942     
-0.786825352688     
-0.440969596182     
-0.610879713663     
-0.426700901971     
-0.519224204235     
-0.423007103227     
-0.471099337074     
-0.439469708187     
-0.45088904237      
-0.484762761861     
-0.447687678558     
-0.570052343361     
-0.457190605176     
-0.80579780962      
-0.00422688750954   
-0.932286217744     
-1.44542608443      
-0.533277538161     
-0.870302745608     
-0.476117217304     
-0.641193178507     
-0.449474687186     
-0.524858453311     
-0.434483928536     
-0.459650510942     
-0.436955764559     
-0.422053790301     
-0.462979775283     
-0.395573448642     
-0.518551317776     
-0.354541155333     
-0.66483141754      
0.485259050391      
-0.502181922283     
-1.33651788716      
-0.337958292844     
-0.689018599752     
-0.262479258873     
-0.449910109786     
-0.249819839206     
-0.338208844428     
-0.243845463832     
-0.266403296312     
-0.236245001598     
-0.200741006115     
-0.217056474436     
-0.100395060434     
-0.153840538189     
0.142871555082      
0.0611339473531     
0.868369779228      
0.0100349263974     
0.303880389449      
0.463809248824      
0.49001597563       
0.297900553415      
0.201209568791      
0.109433043416      
-0.0120250985274    
-0.0574350934247    
-0.183294440422     
-0.164274940961     
-0.232446551594     
-0.293908079711     
-0.303039044517     
-0.494024619148     
-0.427885943592     
-0.618211528851     
-0.489026046507     
-0.494501945291     
-0.121335207678     
0.521310938828      
0.575413786273      
0.451481243971      
0.306781469959      
0.163256150052      
0.106178256896      
0.0867161805927     
0.0588036385319     
0.0363594165383     
0.030786553494      
-0.0562204297054    
-0.0465096679998    
-0.103676897781     
-0.104089070346     
-0.209934934602     
-0.24997316937      
-0.63001789188      
-0.919111341395     
-2.09474006058      
-3.65718687401      
0.125288633564      
0.333079731661      
0.406078431817      
0.438237925322      
0.279731270159      
0.311665009402      
0.155601508663      
0.139963386293      
0.0273383577411     
-0.0177628451119    
-0.122188495711     
-0.170139711594     
-0.293916080803     
-0.330210483463     
-0.471147639006     
-0.526408543796     
-0.716357539617     
-0.732623952638     
-0.769166909459     
-0.408093833432     
0.420171431489      
0.50548274854       
0.333267870334      
0.167899429569      
0.144624428816      
0.0206570671108     
0.0169944573381     
-0.0298658146079    
-0.0492480781       
-0.0675917251933    
-0.0975155909609    
-0.109356281619     
-0.164740300218     
-0.181670740333     
-0.290803836845     
-0.299874343945     
-0.547007802731     
-0.696652344283     
-1.50601782745      
-2.54716222082      
0.194996480579      
0.40016716191       
0.409131364932      
0.418413546462      
0.284135037865      
0.311856045316      
0.155634972503      
0.168248157994      
0.0312124620237     
0.0228320858718     
-0.112706707313     
-0.142000878804     
-0.289971335667     
-0.336943765897     
-0.515112551544     
-0.564038471744     
-0.822016793805     
-0.803546503631     
-0.904184169049     
-0.604412473523     
0.409919885979      
0.498867499435      
0.335843033505      
0.218553575067      
0.11299677267       
0.0169371032912     
-0.00794505756956   
-0.0659910444975    
-0.0758476482058    
-0.103209542192     
-0.12178130616      
-0.131609457128     
-0.177155241627     
-0.170673861376     
-0.282460191112     
-0.255748121366     
-0.508869847544     
-0.625911588532     
-1.45283449439      
-2.36352802696      
0.185916260465      
0.413260037216      
0.415131232071      
0.411111068766      
0.277085170155      
0.289610438822      
0.14756439659       
0.150515153939      
0.0223839197565     
0.0162405638544     
-0.11950636415      
-0.138794866938     
-0.295182213185     
-0.327281383632     
-0.522214381442     
-0.557045680947     
-0.82740276892      
-0.83545988396      
-0.90138285236      
-0.722710097741     
0.422523411526      
0.488297239184      
0.338330626635      
0.260283480705      
0.105320595819      
0.0483318494897     
-0.0201125801535    
-0.0497829349044    
-0.0901738215947    
-0.0954882144623    
-0.138502184209     
-0.125916818507     
-0.195637254395     
-0.168122579465     
-0.307667948221     
-0.259941946795     
-0.508534696264     
-0.588154258595     
-1.36380468115      
-2.1299567666       
0.0755405713371     
0.392730868793      
0.415415316948      
0.401093037467      
0.254490040203      
0.26758013231       
0.133241557953      
0.134326002527      
0.0111891188216     
0.00449242752523    
-0.124395405917     
-0.145872011704     
-0.288829123748     
-0.328392732764     
-0.503064827544     
-0.553577342399     
-0.79468732839      
-0.84003688121      
-0.844832878173     
-0.7552302838       
0.424345300309      
0.47399095408       
0.328572437083      
0.273943903163      
0.0969882862366     
0.063362083205      
-0.0312951851446    
-0.0389044054333    
-0.109201315535     
-0.0888788222124    
-0.166189906518     
-0.122677672908     
-0.232386158482     
-0.169383890479     
-0.370268790965     
-0.273035583398     
-0.532286085512     
-0.561351368902     
-1.21855164179      
-1.92165319056      
-0.0331758239273    
0.372595133628      
0.407462810662      
0.3921788165        
0.238785145565      
0.270306629196      
0.125267368821      
0.14242069891       
0.00773264007954    
0.0155422318463     
-0.121420512842     
-0.134556598879     
-0.275837931763     
-0.317329571776     
-0.479652151561     
-0.5415771239       
-0.76010978147      
-0.8257847006       
-0.79574087611      
-0.745536480247     
0.41646030084       
0.463893452598      
0.315936864005      
0.269221687794      
0.0902912234962     
0.0636582050633     
-0.0365642032374    
-0.0348079966033    
-0.119312221783     
-0.0811139046659    
-0.182252480352     
-0.111980063779     
-0.254543168556     
-0.157682381249     
-0.408893456251     
-0.258817579947     
-0.551323204824     
-0.557159402037     
-1.15385261174      
-1.95837958263      
-0.0431062161523    
0.3672912166        
0.39437521219       
0.383882770559      
0.237246280499      
0.285745648715      
0.12596018004       
0.162767399057      
0.0111342002488     
0.0364653747674     
-0.117053215811     
-0.11660675583      
-0.270468887083     
-0.304368785277     
-0.471744186707     
-0.532487893871     
-0.751323621887     
-0.813973973552     
-0.79013518961      
-0.729528268279     
0.407251367709      
0.461643416223      
0.310879170034      
0.260757144236      
0.0900740248085     
0.0594413884748     
-0.0344186166121    
-0.0328138138423    
-0.117757351807     
-0.0729894838327    
-0.179112237848     
-0.098009808421     
-0.248824250815     
-0.137393842473     
-0.396881333822     
-0.226269610973     
-0.544343592836     
-0.557221827184     
-1.16855453914      
-2.10070081601      
0.0135669784747     
0.363328189106      
0.38152509919       
0.376479946758      
0.23862079903       
0.296936552461      
0.135233578046      
0.179282168739      
0.0259722006872     
0.0481333123594     
-0.106475914752     
-0.1096769261       
-0.268606621306     
-0.302043989339     
-0.467373803906     
-0.534633993849     
-0.744079293688     
-0.817265142683     
-0.775834376141     
-0.729160323918     
0.411644668451      
0.462675655347      
0.305390900429      
0.259767598346      
0.0830815791484     
0.059212349941      
-0.0467386171041    
-0.0331717390943    
-0.126778560632     
-0.0746704454622    
-0.178879361586     
-0.0966090188249    
-0.241599432844     
-0.125433247647     
-0.380141097529     
-0.206700724169     
-0.518968940062     
-0.533030840761     
-1.11283954818      
-2.03944941928      
0.333766318036      
0.420969497207      
0.33325624668       
0.373957095551      
0.247464507784      
0.337207295078      
0.171226609353      
0.208359426526      
0.0814327648632     
0.0685099746749     
-0.0434669738668    
-0.089244394171     
-0.212192381788     
-0.281166031688     
-0.435084814612     
-0.521164597022     
-0.718623155837     
-0.807306288267     
-0.703615967721     
-0.7086068732       
0.440915043112      
0.466967262224      
0.275497755403      
0.256330745005      
0.0556526183873     
0.0597745652207     
-0.0565230688568    
-0.0329560740362    
-0.106308743102     
-0.077203849958     
-0.128138079689     
-0.095062726214     
-0.157794164125     
-0.10384935662      
-0.246967327024     
-0.142477344109     
-0.393524868103     
-0.458315539931     
-0.949986286334     
-1.82410389207      
0.418196429361      
0.469957071644      
0.301270318472      
0.402355220454      
0.22899682285       
0.25240106068       
0.127038920571      
0.139386267735      
0.0327394033621     
0.0452784168779     
-0.0681299087913    
-0.0680868528408    
-0.196229297472     
-0.214319477113     
-0.374667552764     
-0.404614387098     
-0.673688777671     
-0.732506544        
-0.575894435215     
-0.645999916752     
0.465217374967      
0.493448854963      
0.310527436482      
0.311689892543      
0.0838776007917     
0.0958068464305     
-0.0144320032573    
-0.0350381736262    
-0.0480384739288    
-0.101039971711     
-0.0588277017402    
-0.13768815032      
-0.0614043617579    
-0.164666428043     
-0.0634798745625    
-0.177319438163     
-0.189432591235     
-0.330481625004     
-0.567817802252     
-1.16102145959      
-0.107209400062     
-0.238548827623     
-0.225073807205     
-0.160939420594     
-0.186925622876     
-0.145251597949     
-0.175013245941     
-0.167124719245     
-0.189011457162     
-0.209594332827     
-0.233372557904     
-0.274617380021     
-0.317490895001     
-0.370314951382     
-0.459920694674     
-0.539800375727     
-0.73156220571      
-0.492997969139     
-0.640222372943     
-0.885819384364     
-0.333891556328     
-0.597828257177     
-0.310985906111     
-0.473943479786     
-0.312540992563     
-0.414193250226     
-0.324915931328     
-0.393418256327     
-0.359968228429     
-0.403354774228     
-0.428737262419     
-0.43821127992      
-0.546028594704     
-0.512111100692     
-0.843858145218     
-0.412770988587     
-0.968438771634     
-1.2066149699       
-0.480653653163     
-0.786849921288     
-0.440980053084     
-0.610880338142     
-0.426700940208     
-0.519222837985     
-0.423006668645     
-0.471101276828     
-0.439470843094     
-0.450888593124     
-0.484761939117     
-0.447687182905     
-0.570051391011     
-0.457200316901     
-0.805801871495     
-0.00424841271227   
-0.93223523344      
-1.44522985873      
-0.533279783747     
-0.870305074554     