# vtk DataFile Version 3.0
PyPan mesh file. Generated by PyPan, USU AeroLab (c) 2020.
ASCII
DATASET POLYDATA
POINTS 1202 float
-21.3197593689      -10.3317604065      39.3700790405       
-21.3197593689      -5.39737701416      39.0596389771       
-21.9382095337      -5.4362859726       39.0596389771       
-22.5468902588      -5.55240011215      39.0596389771       
-23.1362304688      -5.74388694763      39.0596389771       
-23.6969203949      -6.00772714615      39.0596389771       
-24.2201194763      -6.33975982666      39.0596389771       
-24.6975803375      -6.73474979401      39.0596389771       
-25.1217708588      -7.18646621704      39.0596389771       
-25.486000061       -7.68778514862      39.0596389771       
-25.7845191956      -8.23080158234      39.0596389771       
-26.0126399994      -8.8069524765       39.0596389771       
-26.1667404175      -9.40714836121      39.0596389771       
-26.2444095612      -10.0219297409      39.0596389771       
-26.2444095612      -10.6415901184      39.0596389771       
-26.1667404175      -11.2563695908      39.0596389771       
-26.0126399994      -11.8565702438      39.0596389771       
-25.7845191956      -12.4327201843      39.0596389771       
-25.486000061       -12.9757299423      39.0596389771       
-25.1217708588      -13.4770498276      39.0596389771       
-24.6975708008      -13.9287700653      39.0596389771       
-24.2201194763      -14.3237600327      39.0596389771       
-23.6969108582      -14.655790329       39.0596389771       
-23.1362304688      -14.9196300507      39.0596389771       
-22.5468902588      -15.1111097336      39.0596389771       
-21.9381999969      -15.227230072       39.0596389771       
-21.3197593689      -15.2661399841      39.0596389771       
-20.7013206482      -15.227230072       39.0596389771       
-20.0926303864      -15.1111097336      39.0596389771       
-19.5032901764      -14.9196195602      39.0596389771       
-18.9426002502      -14.6557798386      39.0596389771       
-18.4193992615      -14.3237495422      39.0596389771       
-17.9419403076      -13.9287595749      39.0596389771       
-17.5177497864      -13.4770402908      39.0596389771       
-17.1535301208      -12.9757204056      39.0596389771       
-16.8549995422      -12.4327096939      39.0596389771       
-16.6268901825      -11.8565597534      39.0596389771       
-16.4727802277      -11.256360054       39.0596389771       
-16.3951206207      -10.641579628       39.0596389771       
-16.3951206207      -10.0219202042      39.0596389771       
-16.4727897644      -9.40713787079      39.0596389771       
-16.6268901825      -8.80694103241      39.0596389771       
-16.855009079       -8.23079204559      39.0596389771       
-17.1535301208      -7.68777608871      39.0596389771       
-17.5177707672      -7.18645811081      39.0596389771       
-17.9419593811      -6.73474216461      39.0596389771       
-18.4194202423      -6.33975410461      39.0596389771       
-18.9426193237      -6.00772190094      39.0596389771       
-19.5033092499      -5.74388313293      39.0596389771       
-20.0926399231      -5.55239677429      39.0596389771       
-20.7013301849      -5.43628501892      39.0596389771       
-22.5468902588      -0.618020117283     38.133190155        
-21.3197593689      -0.540815412998     38.133190155        
-23.7546691895      -0.84841632843      38.133190155        
-24.9240493774      -1.22837102413      38.133190155        
-26.0365905762      -1.75188994408      38.133190155        
-27.0747394562      -2.41072010994      38.133190155        
-28.0221290588      -3.19446897507      38.133190155        
-28.8638191223      -4.09077787399      38.133190155        
-29.5865306854      -5.08551120758      38.133190155        
-30.1788692474      -6.16298007965      38.133190155        
-30.6315002441      -7.30619287491      38.133190155        
-30.9372806549      -8.49712181091      38.133190155        
-31.0913791656      -9.71698379517      38.133190155        
-31.0913791656      -10.9465398788      38.133190155        
-30.9372806549      -12.1663999557      38.133190155        
-30.6315002441      -13.3573303223      38.133190155        
-30.1788692474      -14.5005397797      38.133190155        
-29.5865192413      -15.5780096054      38.133190155        
-28.8638095856      -16.5727405548      38.133190155        
-28.0221195221      -17.4690494537      38.133190155        
-27.0747299194      -18.2527999878      38.133190155        
-26.0365791321      -18.9116306305      38.133190155        
-24.9240398407      -19.4351501465      38.133190155        
-23.7546596527      -19.8150997162      38.133190155        
-22.546880722       -20.0454902649      38.133190155        
-21.3197498322      -20.1226997375      38.133190155        
-20.0926208496      -20.0454902649      38.133190155        
-18.8848495483      -19.8150901794      38.133190155        
-17.7154693604      -19.4351406097      38.133190155        
-16.602930069       -18.9116191864      38.133190155        
-15.5647802353      -18.252790451       38.133190155        
-14.617389679       -17.469039917       38.133190155        
-13.7757101059      -16.5727291107      38.133190155        
-13.0529899597      -15.5779895782      38.133190155        
-12.460650444       -14.5005197525      38.133190155        
-12.008020401       -13.3573102951      38.133190155        
-11.7022399902      -12.1663799286      38.133190155        
-11.5481395721      -10.9465198517      38.133190155        
-11.5481395721      -9.71696281433      38.133190155        
-11.702249527       -8.49710083008      38.133190155        
-12.0080299377      -7.30617284775      38.133190155        
-12.4606599808      -6.16296100616      38.133190155        
-13.0530099869      -5.08549308777      38.133190155        
-13.7757196426      -4.09076213837      38.133190155        
-14.6174201965      -3.19445490837      38.133190155        
-15.5648097992      -2.41070699692      38.133190155        
-16.6029605865      -1.75188004971      38.133190155        
-17.7154998779      -1.22836196423      38.133190155        
-18.8848800659      -0.848410606384     38.133190155        
-20.0926494598      -0.618017196655     38.133190155        
-23.1362304688      4.04705381393       36.6053695679       
-21.3197593689      4.1613368988        36.6053695679       
-24.9240493774      3.70600891113       36.6053695679       
-26.6550292969      3.14357995987       36.6053695679       
-28.3018703461      2.36863708496       36.6053695679       
-29.8385906219      1.39340102673       36.6053695679       
-31.2409706116      0.233251601458      36.6053695679       
-32.4868888855      -1.09351396561      36.6053695679       
-33.5566902161      -2.56597304344      36.6053695679       
-34.4335098267      -4.16090297699      36.6053695679       
-35.1035194397      -5.8531498909       36.6053695679       
-35.5561408997      -7.61602878571      36.6053695679       
-35.7842597961      -9.42173576355      36.6053695679       
-35.7842597961      -11.2417898178      36.6053695679       
-35.5561408997      -13.0474996567      36.6053695679       
-35.1035118103      -14.810379982       36.6053695679       
-34.4334983826      -16.502620697       36.6053695679       
-33.556678772       -18.0975494385      36.6053695679       
-32.4868812561      -19.5700092316      36.6053695679       
-31.2409591675      -20.8967704773      36.6053695679       
-29.8385791779      -22.0569190979      36.6053695679       
-28.3018608093      -23.0321598053      36.6053695679       
-26.6550197601      -23.807100296       36.6053695679       
-24.9240398407      -24.3695297241      36.6053695679       
-23.136220932       -24.7105693817      36.6053695679       
-21.3197498322      -24.8248500824      36.6053695679       
-19.5032806396      -24.7105693817      36.6053695679       
-17.7154598236      -24.3695201874      36.6053695679       
-15.9844799042      -23.8070907593      36.6053695679       
-14.3376502991      -23.0321407318      36.6053695679       
-12.8009195328      -22.0569095612      36.6053695679       
-11.3985395432      -20.8967609406      36.6053695679       
-10.1526298523      -19.5699901581      36.6053695679       
-9.0828294754       -18.097530365       36.6053695679       
-8.20601177216      -16.5025997162      36.6053695679       
-7.53600597382      -14.8103504181      36.6053695679       
-7.08337783813      -13.0474700928      36.6053695679       
-6.85526704788      -11.2417602539      36.6053695679       
-6.85526990891      -9.4217042923       36.6053695679       
-7.08338594437      -7.61599779129      36.6053695679       
-7.53601884842      -5.85311985016      36.6053695679       
-8.20603084564      -4.16087388992      36.6053695679       
-9.08285427094      -2.56594610214      36.6053695679       
-10.1526603699      -1.09349095821      36.6053695679       
-11.3985795975      0.233272597194      36.6053695679       
-12.8009595871      1.39341902733       36.6053695679       
-14.3376903534      2.36865210533       36.6053695679       
-15.9845304489      3.1435918808        36.6053695679       
-17.7155094147      3.70601701736       36.6053695679       
-19.5033302307      4.04705810547       36.6053695679       
-23.6969203949      8.48536682129       34.5002593994       
-21.3197593689      8.63492584229       34.5002593994       
-26.0365905762      8.03905105591       34.5002593994       
-28.3018703461      7.30301904678       34.5002593994       
-30.4570407867      6.28887176514       34.5002593994       
-32.4681015015      5.01260900497       34.5002593994       
-34.3033485413      3.49435591698       34.5002593994       
-35.9338493347      1.75805795193       34.5002593994       
-37.3338699341      -0.168905302882     34.5002593994       
-38.4813308716      -2.25614309311      34.5002593994       
[...]
CELL_DATA 2400
SCALARS panel_area float 1
LOOKUP_TABLE default
1.52886383489       
1.52882451444       
1.52885300773       
1.52884494814       
1.52884136372       
1.52884727428       
1.52884619004       
1.52884284358       
1.52883585531       
1.52885259599       
1.52883926414       
1.52885246025       
1.52883395563       
1.52884771826       
1.52885062237       
1.52885056907       
1.52882106641       
1.52884379775       
1.52886748476       
1.52882798141       
1.52885673458       
1.52882153515       
1.52884538946       
1.52884783702       
1.52883908973       
1.52883437475       
1.5288477265        
1.52885167024       
1.52884018371       
1.52883865372       
1.52884065669       
1.52884819299       
1.52882648634       
1.52883361          
1.52883725524       
1.52885143559       
1.52884458606       
1.52882798669       
1.52885168401       
1.52883887771       
1.52884458196       
1.52883563618       
1.52885472179       
1.52883875353       
1.52884165243       
1.52883869855       
1.52884195569       
1.52882977118       
1.52884623785       
1.52881196967       
1.52895721926       
3.03376289367       
1.52891850717       
3.03376345435       
1.52894627837       
3.0337679432        
1.52893867463       
3.03377197046       
1.52893508821       
3.0337633688        
1.52894112253       
3.03376286908       
1.52893979131       
3.03376533866       
1.52893559789       
3.03375936111       
1.52893072866       
3.03375510528       
1.52894437963       
3.03376312925       
1.5289335419        
3.03376328375       
1.52894263869       
3.03376187137       
1.52892399058       
3.03375504971       
1.52894247132       
3.03375313011       
1.52894209953       
3.0337699149        
1.52894528226       
3.03375213709       
1.528912399         
3.03377099037       
1.52893641059       
3.0337473073        
1.52896342709       
3.03376200529       
1.52892028556       
3.03376484185       
1.52895339242       
3.03376487106       
1.5289156515        
3.03377028959       
1.5289435421        
3.03376314143       
1.52894096221       
3.03376389505       
1.52893336261       
3.0337604288        
1.5289280309        
3.0337575045        
1.52894423951       
3.0337446489        
1.52895095563       
3.03376321351       
1.52893869515       
3.03377305952       
1.52893572395       
3.03376497108       
1.52893791802       
3.03376719621       
1.52894346388       
3.03375038233       
1.52892630733       
3.03378074731       
1.52892815996       
3.03376188803       
1.52893498733       
3.03375167832       
1.528946826         
3.03377072678       
1.52894200159       
3.033757445         
1.52892508566       
3.03376423624       
1.5289496632        
3.03376708886       
1.52893372015       
3.0337650745        
1.5289422147        
3.03375873465       
1.52892860911       
3.03376944452       
1.52895473479       
3.03374890611       
1.52893504799       
3.03378298698       
1.52893828526       
3.03376041054       
1.52893387754       
3.03376343405       
1.52893693028       
3.0337670514        
1.52892287994       
3.03376533775       
1.52894049734       
3.03373935381       
1.52890577398       
3.03371126745       
3.03412375415       
4.4912880706        
3.03412535753       
4.49127467479       
3.03412922232       
4.49128172264       
3.03413265281       
4.49128525303       
3.03412186692       
4.4912648453        
3.03412080744       
4.49127749765       
3.03412409441       
4.49127962421       
3.03412006187       
4.49127497758       
3.03412018947       
4.49127902729       
3.03412638231       
4.49128193694       
3.03412354109       
4.49127855653       
3.03412728135       
4.49127679277       
3.03412511843       
4.49127299617       
3.03411516502       
4.49129230367       
3.03413020206       
4.49128056627       
3.03411336157       
4.49126636367       
3.03413415052       
4.49127261628       
3.03411327395       
4.49127421465       
3.03412241153       
4.4912826253        
3.03412152517       
4.4912755792        
3.034129432         
4.4912641576        
3.03412993094       
4.49128312783       
3.03412837296       
4.49128157153       
3.03412674776       
4.4912756856        
3.03412260518       
4.49129185853       
3.03412335185       
4.49128149852       
3.03411327783       
4.4912852306        
3.03412584995       
4.49128837874       
3.03412845021       
4.49126837327       
3.03412373464       
4.49127763124       
3.03412869301       
4.49128036072       
3.03411430286       
4.49127884811       
3.03414568861       
4.49128090737       
3.03412317045       
4.49127967305       
3.03411465628       
4.4912827938        
3.03412756672       
4.49128212671       
3.03411764034       
4.49128135441       
3.03412113249       
4.49127044061       
3.03412725115       
4.4912748067        
3.03412471346       
4.49128007714       
3.03411920993       
4.491278343         
3.03413022927       
4.49127716867       
3.03410818184       
4.49127687611       
3.03414143775       
4.4912762578        
3.03412109761       
4.49127700591       
3.03412291688       
4.49128344587       
3.0341278126        
4.49127853303       
3.03412646925       
4.49127571602       
3.03409982236       
4.49127734277       
3.0340719505        
4.4911838474        
4.49205149838       
5.87861265851       
4.49203839958       
5.87860835282       
4.49204652765       
5.87859973914       
4.49204732697       
5.87861089953       
4.4920289658        
5.87858645675       
4.49204035383       
5.87859194816       
4.49204566039       
5.87860954986       
4.49204223415       
5.8786040003        
4.49203946814       
5.87859704117       
4.49203661114       
5.87859665663       
4.49203796719       
5.87859355332       
4.49204145608       
5.87860160896       
4.49202931762       
5.87861258195       
4.49205030888       
5.87858882316       
4.4920494718        
5.8786095494        
4.49203149574       
5.87860548658       
4.49204180727       
5.87861076768       
4.49203209004       
5.87860138544       
4.49204745994       
5.87857704847       
4.49204460569       
5.87859729835       
4.49202288016       
5.87860508231       
4.49204365378       
5.87860151706       
4.49204138636       
5.8785959254        
4.49203248425       
5.87860099822       
4.4920526675        
5.87860511423       
4.49204439697       
5.87858699158       
4.49204356198       
5.87860705806       
4.49203916738       
5.87860487876       
4.49203362678       
5.87857193643       
4.492036851         
5.87861874348       
4.49203756585       
5.87858887876       
4.49203649023       
5.87860944356       
4.49203781962       
5.87858489978       
4.49204008229       
5.87860500573       
4.49204375158       
5.87858730897       
4.49204487081       
5.87861040366       
4.49204804337       
5.878612348         
4.49203532652       
5.87859081473       
4.49204044889       
5.87860272616       
4.49204318705       
5.87859945762       
4.49204035862       
5.87860431793       
4.49204196934       
5.87860062674       
4.49203939272       
5.87859842413       
4.49204464505       
5.87860291471       
4.49203674685       
5.87860526586       
4.49204767377       
5.87860105326       
4.4920429907        
5.87860014211       
4.49204117087       
5.87859797769       
4.49204088555       
5.87860701017       
4.49194778479       
5.87848526839       
5.87983863582       
7.173921461         
5.87983188832       
7.17395771796       
5.8798198977        
7.17393025878       
5.87983166898       
7.17394266741       
5.8798115968        
7.1739339709        
5.8798256288        
7.17396116498       
5.87983350453       
7.17394571701       
5.87982708631       
7.1739482483        
5.87982660839       
7.17394425945       
5.87982652042       
7.17394894442       
5.87983734548       
7.17395146945       
5.87982436954       
7.17395856037       
5.87983689796       
7.17393068594       
5.8798202708        
7.17395152055       
5.87982719547       
7.17395538252       
5.87983746965       
7.17394552354       
5.87983234733       
7.17395410748       
5.87982130327       
7.17395362817       
5.87980548282       
7.17391493348       
5.87982170892       
7.17394590978       
5.87982843175       
7.17396079281       
5.87983115736       
7.17394237029       
5.87982193664       
7.17394633805       
5.87983934727       
7.17393300205       
5.87983512467       
7.17396378684       
5.87980685359       
7.17395791657       
5.87983548065       
7.17393068279       
5.8798415512        
7.17395239612       
5.87980652549       
7.17396391039       
5.87984827798       
7.1739394251        
5.87981796951       
7.1739572657        
5.87984673485       
7.17394183782       
5.87981662145       
7.17395068358       
5.87983258935       
7.17395242544       
5.87981072692       
7.17395072208       
5.87983509693       
7.17394139426       
5.87983823268       
7.17393190592       
5.87981636012       
7.17395847874       
5.87982785156       
7.17394550854       
5.87982450115       
7.17394817978       
5.87983039199       
7.17394369559       
5.87982595869       
7.1739498399        
5.87982431304       
7.17394289591       
5.87982770146       
7.17394568778       
5.87983173475       
7.17394702686       
5.87982909042       
7.17394936797       
5.87982535642       
7.17394150679       
5.87982533541       
7.17395546449       
5.87983509606       
7.17395702495       
5.87970483682       
7.17383533825       
7.17561854632       
8.35689589245       
7.17565334179       
8.35690643745       
7.17563419306       
8.35689021729       
7.17564421816       
8.35690242366       
7.17563370912       
8.35692963207       
7.1756566054        
8.35690582431       
7.17563391653       
8.35689715669       
7.17564233301       
8.35689396036       
7.17564172248       
8.35690804764       
7.17563968715       
8.35690029487       
7.17564033213       
8.35690915533       
7.17564547488       
8.35689953569       
7.17562518855       
8.35691061551       
7.17564410299       
8.35690805803       
7.17564456155       
8.35688617025       
7.17563561488       
8.35689982606       
7.17564481398       
8.35689649745       
7.175654312         
8.35690234583       
7.17560993989       
8.35691516534       
7.17564015645       
8.35687008241       
7.1756525855        
8.35691546995       
7.17564250366       
8.35689935287       
7.17564510083       
8.35691266045       
7.175622433         
8.35691229291       
7.17564389533       
8.35688053445       
7.17566146565       
8.35690771749       
7.17562734118       
8.35690066559       
7.17564205396       
8.35691340328       
7.17564746663       
8.35689828349       
7.175622713         
8.3569079214        
7.17564552432       
8.35688906957       
7.17564083813       
8.35689682414       
7.17564142456       
8.35691484245       
7.17564710696       
8.35690561746       
7.17564558539       
8.35691816147       
7.17563879362       
8.35688651194       
7.17562857695       
8.35690948167       
7.17565227222       
8.3569033939        
7.17564022023       
8.35690202198       
7.17564056801       
8.35690375663       
7.17563839306       
8.35690264527       
7.17564688701       
8.35690188147       
7.1756392457        
8.35690274375       
7.1756396314        
8.3569057764        
7.17564487547       
8.35690696457       
7.17564525264       
8.35691185021       
7.17563796293       
8.35690185306       
7.17564746317       
8.35691153095       
7.17564257046       
8.35690724284       
7.17553460438       
8.35675849254       
8.35895704187       
9.40867885493       
8.35897011582       
9.40870962791       
8.358953405         
9.40868062383       
8.35896044165       
9.40870322357       
8.35899829794       
9.40867795437       
8.35896165821       
9.40871884352       
8.35896506773       
9.40868959381       
8.35896178471       
9.40869273887       
8.3589753019        
9.40870166072       
8.35897001095       
9.40869614282       
8.35896488544       
9.40869969264       
8.35896561514       
9.40868489949       
8.35897603635       
9.40870727273       
8.35898284861       
9.40869248721       
8.35896434983       
9.40870513708       
8.35896785756       
9.40870081989       
8.35897127673       
9.40869691003       
8.35895491476       
9.40870535337       
8.35897516428       
9.40868727313       
8.35893757421       
9.40867548545       
8.35898797144       
9.40870635755       
8.35896029267       
9.40869882189       
8.35898134287       
9.40868566769       
8.35898534026       
9.40871529696       
8.35894822752       
9.40870924177       
8.35897181829       
9.40867960841       
8.35895599464       
9.40870396705       
8.35897905549       
9.40869236663       
8.35896690566       
9.40869274585       
8.35897965916       
9.40869861874       
8.35895543985       
9.40870687551       
8.35895864714       
9.40867795325       
8.3589801087        
9.40869041864       
8.3589679575        
9.40871196742       
8.35898445901       
9.40868182674       
8.35894980518       
9.40871829703       
8.35897321146       
9.4086817914        
8.35896585944       
9.40869540268       
8.35896916249       
9.40869676313       
8.35897109661       
9.4086953619        
8.35897185032       
9.40869932113       
8.35896807905       
9.40870000734       
8.3589640611        
9.40869583763       
8.35897247358       
9.40869797514       
8.35896706508       
9.40869013408       
8.3589687606        
9.40869286213       
8.35895837188       
9.408686383         
8.35896807624       
9.40870268906       
8.35897929864       
9.40867484544       
8.35882632718       
9.40856185171       
9.41096697439       
10.3125369759       
9.41099476199       
10.3125465951       
9.41096822236       
10.3125494717       
9.41099102837       
10.3125253337       
9.41096133955       
10.3125701123       
9.41100354443       
10.3125365411       
9.41098301592       
10.3125567161       
9.41098021787       
10.3125488511       
9.41098859101       
10.312557366        
9.41098004845       
10.3125507125       
9.41098804777       
10.3125442038       
9.41098682543       
10.3125564733       
9.41099386777       
10.3125546071       
9.41097079051       
10.3125514241       
9.41098284248       
10.3125374276       
9.41098721168       
10.3125597848       
9.41098532779       
10.312561102        
9.41099931897       
10.3125419029       
9.41098830447       
10.3125470091       
9.41096533983       
10.3125307797       
9.41098604591       
10.3125574925       
9.41097757786       
10.3125501966       
9.41097720935       
10.3125531409       
9.41099054982       
10.3125439389       
9.41099310911       
10.3125541117       
9.4109671083        
10.3125416712       
9.41100553925       
10.3125669418       
9.41097890141       
10.3125496266       
9.41097637947       
10.3125520851       
9.41098101494       
10.3125515002       
9.41099530473       
10.3125330988       
9.41097334824       
10.31255225         
9.41097741177       
10.3125661054       
9.41100089375       
10.312547671        
9.41097639027       
10.312555983        
9.41101071648       
10.3125447024       
9.41096889859       
10.3125608038       
9.41099287008       
10.3125484261       
9.41098851131       
10.3125604216       
9.41098014539       
10.3125558791       
9.41098504556       
10.3125431791       
9.41098632128       
10.3125517747       
9.41098883431       
10.3125584103       
9.41098691007       
10.3125491709       
9.4109774455        
10.3125470825       
9.41098965954       
10.3125538212       
9.41098607825       
10.3125576339       
9.41099599434       
10.3125581643       
9.41096548454       
10.3125439389       
9.4108478978        
10.3123841262       
10.31484768         
11.0539561643       
10.3148621952       
11.053962918        
10.3148600987       
11.0539407086       
10.3148339284       
11.0539612476       
10.3148863202       
11.0539484274       
10.3148521534       
11.0539736026       
10.3148640938       
11.0539598529       
10.3148599842       
11.053955102        
10.3148609431       
11.0539552583       
10.3148542514       
11.0539487488       
10.3148658304       
11.0539623608       
10.3148614614       
11.0539637277       
10.3148621672       
11.0539554016       
10.3148675046       
11.0539768446       
10.3148474293       
11.0539534295       
10.3148765675       
11.0539634096       
10.3148642423       
11.0539479075       
10.3148556328       
11.0539578673       
10.3148534005       
11.0539682348       
10.3148319965       
11.0539520868       
10.3148809508       
11.0539401097       
10.3148680041       
11.0539763134       
10.3148645176       
11.0539709115       
10.3148565313       
11.0539561083       
10.3148671208       
11.0539532487       
10.3148518542       
11.0539541214       
10.3148796776       
11.0539643387       
10.3148574946       
11.05396234         
10.3148685605       
11.0539701101       
10.3148734168       
11.0539613838       
10.3148492712       
11.0539689781       
10.314856179        
11.0539566894       
10.3148739485       
11.05396914         
10.3148625882       
11.0539648018       
10.3148633939       
11.0539332344       
10.3148481998       
11.0539735297       
10.3148666887       
11.0539679196       
10.3148617164       
11.0539492698       
10.3148645362       
11.0539637512       
10.3148624975       
11.0539621797       
10.3148590868       
11.0539518785       
10.3148627242       
11.0539654415       
10.3148639583       
11.0539503133       
10.3148521691       
11.0539536814       
10.3148606633       
11.0539606009       
10.3148617838       
11.0539597775       
10.3148665873       
11.0539666759       
10.31486514         
11.0539582394       
10.3148565313       
11.053957727        
10.3146995215       
11.0537847636       
11.0560504675       
11.6209225753       
11.0560639168       
11.6209374503       
11.0560336057       
11.6209313404       
11.0560618726       
11.6209183438       
11.0560525248       
11.6209570268       
11.0560701595       
11.6209350954       
11.0560601965       
11.6209255037       
11.0560618493       
11.6209431455       
11.0560529393       
11.6209255965       
11.0560563954       
11.6209337926       
11.0560639111       
11.6209430835       
11.0560574201       
11.6209326257       
11.0560571717       
11.6209196784       
11.0560731751       
11.6209495811       
11.0560579012       
11.6209424763       
11.0560669654       
11.6209303515       
11.0560448778       
11.6209515434       
11.0560563588       
11.6209310922       
11.0560595551       
11.6209299054       
11.0560591874       
11.6209083774       
11.0560313274       
11.6209460746       
11.0560686089       
11.620913611        
11.0560634991       
11.620946524        
11.0560507273       
11.6209364196       
11.0560551902       
11.6209133743       
11.0560581899       
11.6209513292       
11.0560579844       
11.6209312579       
11.0560578913       
11.6209397934       
11.0560673592       
11.6209238817       
11.0560533794       
11.6209485863       
11.0560664382       
11.6209130319       
11.0560540571       
11.6209597344       
11.0560732774       
11.6209242787       
11.0560660303       
11.6209622631       
11.0560239727       
11.6209106923       
11.0560756947       
11.6209359289       
11.056073055        
11.6209459042       
11.0560443915       
11.6209315766       
11.0560556379       
11.6209331766       
11.0560647764       
11.6209263063       
11.0560505663       
11.620941022        
11.0560677069       
11.6209270784       
11.0560513249       
11.6209339408       
11.0560612671       
11.6209417243       
11.0560636415       
11.620941232        
11.0560575958       
11.6209358077       
11.0560684311       
11.6209434124       
11.0560596189       
11.6209247037       
11.0560513208       
11.6209416676       
11.0558855386       