# vtk DataFile Version 3.0
PyPan mesh file. Generated by PyPan, USU AeroLab (c) 2020.
ASCII
DATASET POLYDATA
POINTS 4902 float
-21.3197593689      -10.3317604065      39.3700790405       
-21.3197593689      -7.85968923569      39.292388916        
-21.4749908447      -7.86456680298      39.292388916        
-21.6295890808      -7.87918186188      39.292388916        
-21.7829799652      -7.90347623825      39.292388916        
-21.9345397949      -7.93735313416      39.292388916        
-22.0836791992      -7.98067998886      39.292388916        
-22.2297897339      -8.03328609467      39.292388916        
-22.3723201752      -8.09496307373      39.292388916        
-22.5106906891      -8.16546726227      39.292388916        
-22.6443595886      -8.24452114105      39.292388916        
-22.7728099823      -8.33181190491      39.292388916        
-22.8955192566      -8.42699623108      39.292388916        
-23.0120105743      -8.52969741821      39.292388916        
-23.1218204498      -8.63951015472      39.292388916        
-23.2245292664      -8.75600147247      39.292388916        
-23.3197097778      -8.87871170044      39.292388916        
-23.406999588       -9.00715732574      39.292388916        
-23.4860496521      -9.14083003998      39.292388916        
-23.5565605164      -9.27920246124      39.292388916        
-23.6182308197      -9.42172908783      39.292388916        
-23.6708393097      -9.56784629822      39.292388916        
-23.7141704559      -9.71697902679      39.292388916        
-23.7480392456      -9.86853885651      39.292388916        
-23.7723407745      -10.0219297409      39.292388916        
-23.7869491577      -10.1765403748      39.292388916        
-23.7918300629      -10.3317604065      39.292388916        
-23.7869491577      -10.4869804382      39.292388916        
-23.7723407745      -10.6415901184      39.292388916        
-23.7480392456      -10.7949800491      39.292388916        
-23.7141704559      -10.9465398788      39.292388916        
-23.6708393097      -11.0956697464      39.292388916        
-23.6182308197      -11.2417898178      39.292388916        
-23.5565605164      -11.3843097687      39.292388916        
-23.4860496521      -11.5226898193      39.292388916        
-23.406999588       -11.6563596725      39.292388916        
-23.3197097778      -11.7847995758      39.292388916        
-23.2245197296      -11.9075098038      39.292388916        
-23.1218204498      -12.0240001678      39.292388916        
-23.0120105743      -12.1338195801      39.292388916        
-22.8955192566      -12.2365198135      39.292388916        
-22.7728099823      -12.331700325       39.292388916        
-22.6443595886      -12.4189901352      39.292388916        
-22.5106906891      -12.498049736       39.292388916        
-22.3723201752      -12.5685501099      39.292388916        
-22.2297897339      -12.63022995        39.292388916        
-22.0836696625      -12.6828298569      39.292388916        
-21.9345397949      -12.7261600494      39.292388916        
-21.7829799652      -12.7600402832      39.292388916        
-21.6295890808      -12.784330368       39.292388916        
-21.4749794006      -12.7989501953      39.292388916        
-21.3197593689      -12.8038196564      39.292388916        
-21.1645393372      -12.7989501953      39.292388916        
-21.009929657       -12.784330368       39.292388916        
-20.8565406799      -12.7600402832      39.292388916        
-20.7049808502      -12.7261600494      39.292388916        
-20.5558490753      -12.6828298569      39.292388916        
-20.4097309113      -12.63022995        39.292388916        
-20.2672100067      -12.5685501099      39.292388916        
-20.1288299561      -12.4980401993      39.292388916        
-19.9951591492      -12.4189901352      39.292388916        
-19.8667201996      -12.331700325       39.292388916        
-19.7440109253      -12.2365198135      39.292388916        
-19.6275100708      -12.1338100433      39.292388916        
-19.5177001953      -12.0240001678      39.292388916        
-19.4150009155      -11.9075098038      39.292388916        
-19.3198204041      -11.7847995758      39.292388916        
-19.2325191498      -11.6563501358      39.292388916        
-19.1534690857      -11.5226802826      39.292388916        
-19.0829696655      -11.3843097687      39.292388916        
-19.0212898254      -11.2417802811      39.292388916        
-18.9686908722      -11.0956602097      39.292388916        
-18.925359726       -10.9465303421      39.292388916        
-18.8914794922      -10.7949695587      39.292388916        
-18.8671894073      -10.6415901184      39.292388916        
-18.8525695801      -10.4869699478      39.292388916        
-18.8476905823      -10.3317499161      39.292388916        
-18.8525695801      -10.1765298843      39.292388916        
-18.8671894073      -10.0219202042      39.292388916        
-18.8914794922      -9.86853313446      39.292388916        
-18.925359726       -9.71697425842      39.292388916        
-18.9686908722      -9.56784152985      39.292388916        
-19.0212898254      -9.42172336578      39.292388916        
-19.0829696655      -9.27919769287      39.292388916        
-19.1534805298      -9.14082527161      39.292388916        
-19.2325305939      -9.00715255737      39.292388916        
-19.3198204041      -8.87870788574      39.292388916        
-19.4150009155      -8.75599765778      39.292388916        
-19.5177097321      -8.63950634003      39.292388916        
-19.6275196075      -8.52969360352      39.292388916        
-19.7440109253      -8.42699241638      39.292388916        
-19.8667201996      -8.33180904388      39.292388916        
-19.9951705933      -8.24451828003      39.292388916        
-20.1288394928      -8.16546440125      39.292388916        
-20.2672100067      -8.09496021271      39.292388916        
-20.409740448       -8.03328418732      39.292388916        
-20.5558605194      -7.98067903519      39.292388916        
-20.704990387       -7.93735218048      39.292388916        
-20.8565502167      -7.90347480774      39.292388916        
-21.0099391937      -7.8791809082       39.292388916        
-21.1645507812      -7.86456680298      39.292388916        
-21.6296005249      -5.40711402893      39.0596389771       
-21.3197593689      -5.39737701416      39.0596389771       
-21.9382095337      -5.4362859726       39.0596389771       
-22.2443695068      -5.4847779274       39.0596389771       
-22.5468902588      -5.55240011215      39.0596389771       
-22.8445701599      -5.63888311386      39.0596389771       
-23.1362304688      -5.74388694763      39.0596389771       
-23.4207191467      -5.86699676514      39.0596389771       
-23.6969203949      -6.00772714615      39.0596389771       
-23.9637393951      -6.16552305222      39.0596389771       
-24.2201194763      -6.33975982666      39.0596389771       
-24.4650592804      -6.52975320816      39.0596389771       
-24.6975803375      -6.73474979401      39.0596389771       
-24.9167709351      -6.95394182205      39.0596389771       
-25.1217708588      -7.18646621704      39.0596389771       
-25.3117599487      -7.43140220642      39.0596389771       
-25.486000061       -7.68778514862      39.0596389771       
-25.6437892914      -7.95460319519      39.0596389771       
-25.7845191956      -8.23080158234      39.0596389771       
-25.9076309204      -8.51529216766      39.0596389771       
-26.0126399994      -8.8069524765       39.0596389771       
-26.0991191864      -9.10462856293      39.0596389771       
-26.1667404175      -9.40714836121      39.0596389771       
-26.2152309418      -9.71331691742      39.0596389771       
-26.2444095612      -10.0219297409      39.0596389771       
-26.2541408539      -10.3317604065      39.0596389771       
-26.2444095612      -10.6415901184      39.0596389771       
-26.2152309418      -10.9502000809      39.0596389771       
-26.1667404175      -11.2563695908      39.0596389771       
-26.0991191864      -11.5588903427      39.0596389771       
-26.0126399994      -11.8565702438      39.0596389771       
-25.9076309204      -12.148229599       39.0596389771       
-25.7845191956      -12.4327201843      39.0596389771       
-25.6437892914      -12.7089195251      39.0596389771       
-25.486000061       -12.9757299423      39.0596389771       
-25.3117599487      -13.2321100235      39.0596389771       
-25.1217708588      -13.4770498276      39.0596389771       
-24.9167709351      -13.709569931       39.0596389771       
-24.6975708008      -13.9287700653      39.0596389771       
-24.4650497437      -14.1337604523      39.0596389771       
-24.2201194763      -14.3237600327      39.0596389771       
-23.9637298584      -14.4979896545      39.0596389771       
-23.6969108582      -14.655790329       39.0596389771       
-23.4207191467      -14.7965202332      39.0596389771       
-23.1362304688      -14.9196300507      39.0596389771       
-22.8445701599      -15.0246295929      39.0596389771       
-22.5468902588      -15.1111097336      39.0596389771       
-22.2443695068      -15.1787395477      39.0596389771       
-21.9381999969      -15.227230072       39.0596389771       
-21.6295890808      -15.2564001083      39.0596389771       
-21.3197593689      -15.2661399841      39.0596389771       
-21.009929657       -15.2564001083      39.0596389771       
-20.7013206482      -15.227230072       39.0596389771       
-20.395149231       -15.178730011       39.0596389771       
-20.0926303864      -15.1111097336      39.0596389771       
-19.7949504852      -15.0246295929      39.0596389771       
-19.5032901764      -14.9196195602      39.0596389771       
-19.2187995911      -14.7965097427      39.0596389771       
-18.9426002502      -14.6557798386      39.0596389771       
-18.6757907867      -14.4979896545      39.0596389771       
[...]
CELL_DATA 9800
SCALARS panel_area float 1
LOOKUP_TABLE default
0.191966452645      
0.191941060081      
0.191959977176      
0.191956224849      
0.191963310925      
0.191947046851      
0.191960062131      
0.191953188698      
0.191951697686      
0.191960856678      
0.191954754945      
0.191955268549      
0.191952341832      
0.19196156691       
0.191952962001      
0.191955431951      
0.191953329949      
0.191959001301      
0.191952462334      
0.191955624287      
0.191956939721      
0.191954037253      
0.191961316969      
0.191955464597      
0.191952263656      
0.191952263656      
0.191954287559      
0.19196013544       
0.191954004972      
0.191953471622      
0.191958863925      
0.191944728133      
0.191967235762      
0.191950203387      
0.19194929148       
0.191959441531      
0.19195209665       
0.191957784056      
0.191954239484      
0.191951455918      
0.191959613045      
0.191954852521      
0.191950652846      
0.191961025392      
0.191954843102      
0.191952346833      
0.19195667395       
0.191958654417      
0.191955177053      
0.191951375916      
0.191951375916      
0.191955177053      
0.191956314364      
0.191956641543      
0.191954590125      
0.191952599778      
0.191950001564      
0.191965942918      
0.191950525379      
0.191947675869      
0.191950912031      
0.191970257378      
0.19194909438       
0.191951985767      
0.191951807741      
0.191966416991      
0.19194981565       
0.191949747778      
0.191959605842      
0.19195413359       
0.191952413262      
0.191957638724      
0.191944613927      
0.191968047734      
0.191952090154      
0.191952141244      
0.191955253631      
0.191954101452      
0.191955628329      
0.191956190829      
0.191952391118      
0.191955748361      
0.191958378411      
0.191952754412      
0.191953910145      
0.19195244212       
0.191961097093      
0.191951923155      
0.191954903857      
0.191953692976      
0.191960541692      
0.191951436911      
0.19195298345       
0.191959411191      
0.191957416997      
0.191951711525      
0.191956250059      
0.191957520517      
0.191957297316      
0.191938148109      
0.1919668159        
0.383164906613      
0.191941581081      
0.383153187957      
0.191960438511      
0.383143249798      
0.191956504703      
0.383155332155      
0.191963335425      
0.383157287296      
0.191947482939      
0.383154870478      
0.191960269492      
0.383151961397      
0.191953570431      
0.383156370627      
0.191952414114      
0.383156159405      
0.191961035322      
0.383151095842      
0.191955151663      
0.383158103521      
0.191955608662      
0.383151662483      
0.191952916277      
0.383151564217      
0.191961369351      
0.383157614848      
0.191952979096      
0.383150681235      
0.191955824086      
0.383155564135      
0.191953796226      
0.383150795074      
0.191958555847      
0.383152924445      
0.191953035955      
0.38315389941       
0.191956126256      
0.383157663226      
0.191956577339      
0.383151785054      
0.191955030881      
0.383153087665      
0.191961143153      
0.383153672706      
0.191956746651      
0.383158119339      
0.191952664915      
0.383152580234      
0.191953531998      
0.383150531883      
0.191954069268      
0.383156049302      
0.191961149487      
0.383153611057      
0.191953683968      
0.383155537911      
0.191954238944      
0.383155480351      
0.191959576041      
0.383156799728      
0.191944828551      
0.383155098167      
0.191967850034      
0.383153741248      
0.191950670255      
0.383142817257      
0.191949762315      
0.383152789986      
0.19196105992       
0.383154816958      
0.191953300379      
0.383154317261      
0.191957966802      
0.383167331893      
0.191954301735      
0.383145715024      
0.191952603044      
0.383152928476      
0.19196065835       
0.383155833489      
0.191955143246      
0.383159093514      
0.191951627575      
0.383145352729      
0.191961885171      
0.383152252567      
0.191956309573      
0.383153524793      
0.191952939458      
0.383156780522      
0.191957520698      
0.383157007037      
0.191960072082      
0.383154520699      
0.191955647685      
0.383155878965      
0.19195339902       
0.383150456064      
0.191951836497      
0.383151995388      
0.191956566678      
0.383152602978      
0.191956491354      
0.383158853031      
0.191957278319      
0.383151331927      
0.191956007961      
0.383155914554      
0.191952738982      
0.383158073645      
0.191950979536      
0.383152792251      
0.191967281947      
0.383153870933      
0.191951529684      
0.383142355038      
0.191949200171      
0.383164451596      
0.191952002574      
0.383144264491      
0.191971581357      
0.383163857598      
0.191950414489      
0.383149750192      
0.191953245211      
0.383162489997      
0.191953602553      
0.383145932078      
0.191966576205      
0.383156607554      
0.191950809303      
0.383148724359      
0.191951147608      
0.383155189533      
0.191960760395      
0.383153376991      
0.191955988007      
0.383153474948      
0.191953271673      
0.383157243852      
0.191958694799      
0.383155682349      
0.191945895585      
0.383155701984      
0.19196852149       
0.383154397486      
0.191952663641      
0.383150383509      
0.191952509131      
0.383150538425      
0.19195660084       
0.383158268545      
0.191954220017      
0.383155456457      
0.191956303169      
0.383152418649      
0.191957604027      
0.383153165053      
0.191952384364      
0.383155678877      
0.191956238462      
0.383152926158      
0.191959661773      
0.383154141237      
0.191953899878      
0.383150234731      
0.191954678502      
0.383155313999      
0.191952244503      
0.383159639484      
0.191962301576      
0.38314555961       
0.191952375806      
0.383161042787      
0.191955383286      
0.383150666317      
0.191953946577      
0.383156701838      
0.191961411796      
0.383150406714      
0.191951868388      
0.38315555577       
0.191953565873      
0.383143547183      
0.191959921278      
0.383164407999      
0.191958115194      
0.383155335382      
0.191952331184      
0.383145953445      
0.191956820406      
0.383155080218      
0.191958026313      
0.383154558695      
0.191957880877      
0.383153225308      
0.191938620211      
0.383138983852      
0.383167967912      
0.572846041976      
0.383156262841      
0.57285655096       
0.383146213171      
0.572840345865      
0.383158508642      
0.572836594842      
0.383160510363      
0.572848413376      
0.383158435873      
0.572845629433      
0.383155048634      
0.572844384607      
0.38315975235       
0.572848986372      
0.3831586826        
0.572835652237      
0.383153246657      
0.572843756847      
0.383161121204      
0.572848955859      
0.383154702739      
0.57284707696       
0.383155356344      
0.572847782654      
0.383160200452      
0.572841851649      
0.38315445797       
0.572844214825      
0.383159108573      
0.572847281707      
0.38315477037       
0.572842290501      
0.383156723374      
0.572844241493      
0.383158787696      
0.572847832104      
0.383159435769      
0.572843876129      
0.383154654602      
0.572842727778      
0.383157210238      
0.572846313552      
0.383156726966      
0.572845228831      
0.383160608019      
0.5728437488        
0.383155058825      
0.572843529751      
0.383152380345      
0.572845027181      
0.383158924423      
0.572840793758      
0.383157635623      
0.572843241062      
0.383157984821      
0.572849007865      
0.383158187938      
0.572849511018      
0.383159194655      
0.572844438588      
0.383158658057      
0.572839564202      
0.383157516298      
0.572839329047      
0.383144977261      
0.572848647041      
0.383156884946      
0.572840984536      
0.383157176978      
0.572855883679      
0.383156387826      
0.572834457495      
0.383169985554      
0.572848569475      
0.38314932584       
0.572844764783      
0.383155014547      
0.572838110157      
0.383159686251      
0.57284472923       
0.383161376185      
0.572843328719      
0.383148592093      
0.572855755729      
0.38315386177       
0.57283771138       
0.383156725857      
0.572845482264      
0.383160808909      
0.572837540618      
0.38315893637       
0.572847634779      
0.383156817525      
0.572841180048      
0.383158897381      
0.572842077296      
0.383152450799      
0.572845946353      
0.383154350595      
0.572841631486      
0.383155309592      
0.572845674562      
0.383162322444      
0.572851252203      
0.383155269877      
0.572837796828      
0.383158591623      
0.572850479096      
0.383162269874      
0.572841971377      
0.383157789811      
0.572844258795      
0.383157974528      
0.572850087873      
0.383145424189      
0.572850502034      
0.383167681258      
0.5728311178        
0.383147723637      
0.572847844657      
0.383166973005      
0.572854853357      
0.383151300522      
0.572839497302      
0.383164918813      
0.57285036242       
0.383148522827      
0.572837942964      
0.38316012402       
0.572840594444      
0.383152705684      
0.572850601419      
0.383158060765      
0.572849074531      
0.383154981354      
0.572839087694      
0.383156773475      
0.572844387318      
0.383161144109      
0.572837961716      
0.383158937671      
0.572851481522      
0.383157867379      
0.572839746616      
0.383157639115      
0.572854936704      
0.383154040899      
0.572833932125      
0.383154612456      
0.572849957698      
0.383160886001      
0.572847242138      
0.383158661417      
0.572844054882      
0.383156104551      
0.572845380616      
0.383155490533      
0.572843920834      
0.383159583052      
0.572839792904      
0.38315778089       
0.572847914329      
0.383158930925      
0.572844868446      
0.383152252443      
0.572849458405      
0.383157554305      
0.572845341529      
0.38316365806       
0.572843060901      
0.383149591797      
0.572842494809      
0.383164426106      
0.572845970354      
0.383154374174      
0.572847099446      
0.383161234416      
0.57283815946       
0.383153502472      
0.572858288155      
0.383159144629      
0.572833356925      
0.383146043031      
0.572850934474      
0.383168035566      
0.57284098255       
0.38315883681       
0.572846239089      
0.383148582156      
0.572847779691      
0.383157712944      
0.572847397271      
0.383157501074      
0.572842175579      
0.383156286673      
0.572842325861      
0.383141989591      
0.572820104358      
0.572852813818      
0.760283084816      
0.572863332191      
0.760278369029      
0.572847089177      
0.760280595284      
0.572843287154      
0.7602808961        
0.572854944218      
0.760281589378      
0.572852060971      
0.760282036267      
0.572850792665      
0.760276391319      
0.572855677358      
0.76028868162       
0.572842527302      
0.760272016121      
0.572852494876      
0.760289161025      
0.572856567903      
0.760281593836      
0.572854457663      
0.76028119124       
0.57285271524       
0.760274902784      
0.572848543525      
0.760285003476      
0.572851026304      
0.760276528742      
0.572853135917      
0.760282907202      
0.572848478577      
0.760277288836      
0.572849526127      
0.760279204739      
0.572852484725      
0.760281351644      
0.572850415061      
0.760277654327      
0.572850482169      
0.760281276969      
0.572853180813      
0.760281432398      
0.572851975785      
0.760281002945      
0.572849748353      
0.760280157994      
0.57285119841       
0.760277753609      
0.57285136846       
0.760281180301      
0.572849095947      
0.760277403539      
0.572849515666      
0.760281354437      
0.572855502354      
0.760283526421      
0.572856927249      
0.760280664136      
0.572853751569      
0.760282358283      
0.572845919897      
0.760276891388      
0.572845976168      
0.760287419994      
0.57285490603       
0.760278809378      
0.572847873641      
0.76027081658       
0.572862087866      
0.760283531075      
0.572843140656      
0.76027945339       
0.57285597557       
0.760283800393      
0.572853544453      
0.7602814508        
0.572846137717      
0.760283029242      
0.572854300303      
0.76028185394       
0.572851084903      
0.76028476818       
0.572863515331      
0.760278054748      
0.572846462358      
0.760288887221      
0.572853954929      
0.760282892168      
0.572843171792      
0.760281164657      
0.572855089628      
0.760281517643      
0.572849243979      
0.760281305505      
0.572849428533      
0.760278802236      
0.572854462975      
0.760282847249      
0.572849934003      
0.760271145922      
0.572852336685      
0.76029064374       
0.572859319099      
0.760283454358      
0.57284411916       
0.760270909318      
0.572858045245      
0.76028073924       
0.572848851182      
0.760281667262      
0.572849695126      
0.760285641759      
0.572855552641      
0.760279059581      
0.572855247624      
0.760277355552      
0.572837904285      
0.760281058612      
0.572853837149      
0.760284032143      
0.572861167516      
0.760278812354      
0.572847282519      
0.760274794496      
0.57285840142       
0.760280850008      
0.572844490227      
0.760281367063      
0.572847925702      
0.760289139181      
0.572855788158      
0.760271974251      
0.572855199101      
0.760287543702      
0.572848041528      
0.760275220548      
0.572852832849      
0.760282981724      
0.572843270204      
0.760281164657      
0.572856125912      
0.760282393767      
0.572848745402      
0.760280702571      
0.572862678368      
0.760280405558      
0.572839140692      
0.760281755145      
0.572856617917      
0.760278581573      
0.572853557768      
0.760281406138      
0.572852535215      
0.760280793123      
0.572851899904      
0.760282122333      
0.572852282018      
0.760279713678      
0.572846965175      
0.76028013061       
0.572853200023      
0.760280511078      
0.572850552195      
0.760279337855      
0.572854485211      
0.760284635002      
0.572852839289      
0.760281582582      
0.572852054189      
0.760273032116      
0.572847194072      
0.760289428138      
0.572852201622      
0.760279806019      
0.572852867432      
0.760280022506      
0.572843461084      
0.760278844956      
0.57286527431       
0.760276594351      
0.572839527203      
0.760284663602      
0.572857628173      
0.760275612402      
0.572847887016      
0.760287653287      
0.572851804313      
0.760280774867      
0.57285420031       
0.760280335657      
0.572854514331      
0.76028060147       
0.572849712725      
0.760269153023      
0.572849204941      
0.760290416924      
0.572827041051      
0.760245323475      
0.760293686788      
0.944732995466      
0.760289088354      
0.944715874636      
0.760291377312      
0.944723021314      
0.760291811926      
0.944720088055      
0.760291981577      
0.944721028516      
0.76029335198       
0.944729223086      
0.760288294437      
0.94472330153       
0.760298471011      
0.944717865961      
0.760283498467      
0.944726018903      
0.760299410639      
0.944725348559      
0.760289812969      
0.944716704555      
0.760289846244      
0.94472058784       
0.760286962266      
0.944725513549      
0.760296446998      
0.94472290904       
0.76028527872       
0.944714512328      
0.760294013002      
0.944726438122      
0.760288465196      
0.944720555458      
0.76029099726       
0.944722753525      
0.760293931275      
0.944724617862      
0.760289610838      
0.944721714224      
0.760292138914      
0.944722751082      
0.760290824054      
0.94472199213       
0.760289998293      
0.944720851938      
0.760292251605      
0.944721348352      
0.760290717447      
0.944720788266      
0.760293875305      
0.944722317035      
0.760286682744      
0.944729323418      
0.760290444819      
0.944722072935      
0.760295010645      
0.944718374189      
0.760291238529      
0.944722122883      
0.760290948459      
0.944730930935      
0.760288080267      
0.944718382479      
0.760297781792      
0.944717436106      
0.760290621722      
0.944732110691      
0.760281151471      
0.944713635927      
0.760295041499      
0.944724940632      
0.76029024512       
0.944720528445      
0.760292153688      
0.94472497087       
0.760289724286      
0.944715487584      
0.760291154736      
0.944717584145      
0.76029058368       
0.944727686721      
0.76029286481       
0.944723792106      
0.76028612704       
0.94471599982       
0.760297932662      
0.944719373806      
0.760292248915      
0.94473064014       
0.760292834005      
0.944721788028      
0.760291639819      
0.944720528772      
0.760291495911      
0.944721116921      
0.760287396001      
0.944728211365      
0.760292604857      
0.944718920949      
0.76027751174       
0.944719995374      
0.76030294928       
0.944722413638      
0.760292274725      
0.944716483384      
0.760283601994      
0.944728609644      
0.760292547094      
0.944723802415      
0.760289970438      
0.944720434137      
0.76029657924       
0.944721049742      
0.760289941         
0.944725301083      
0.760290105525      
0.944720574675      
0.760292193448      
0.944723146368      
0.760292397309      
0.944717890984      
0.760288145338      
0.94471726865       
0.760285835075      
0.944730866458      
0.760291471313      
0.944719438788      
0.76029236068       
0.944729291067      
0.760300505111      
0.944721711575      
0.76028104493       
0.944713862412      
0.76029901437       
0.944725947461      
0.760286571379      
0.944725013415      
0.760291960405      
0.944715773497      
0.76029199953       
0.944720717528      
0.760292483367      
0.944733259602      
0.760289968059      
0.944722033534      
0.760288020715      
0.944712459447      
0.76029173219       
0.944719194691      
0.760288593014      
0.94472503242       
0.760292620704      
0.944721106578      
0.760291100409      
0.944723335478      
0.760293110134      
0.944720863744      
0.760289988532      
0.944724561931      
0.760287832724      
0.944721922863      
0.760292209639      
0.944717643649      
0.76028730216       
0.944729446525      
0.760296514383      
0.944714966903      
0.760292711365      
0.944726329224      
0.760283146139      
0.944716627299      
0.760299202578      
0.944726486564      
0.760293226226      
0.944718894718      
0.76029079717       
0.944731238159      
0.760290419794      
0.944714739835      
0.760288215431      
0.944725120991      
0.760294095948      
0.944726616799      
0.760287079162      
0.944714784743      
0.760297285695      
0.944734479137      
0.760292639293      
0.944715749962      
0.760292122095      
0.944720786865      
0.760291666229      
0.944719958083      
0.76027945767       
0.94472275816       
0.760300374797      
0.944726885151      
0.760255848533      
0.94468315231       
0.944750305601      
1.1254472828        
0.944732888708      
1.12544938696       
0.944740675139      
1.12544584374       
0.94473776891       
1.12544473449       
0.944739497607      
1.125450535         
0.944746465144      
1.12544470235       
0.944739044462      
1.12543900661       
0.944733841012      
1.12544373848       
0.944744114677      
1.12544711167       
0.944740603664      
1.1254473049        
0.944734294191      
1.12544482949       
0.944739818442      
1.12544709273       
0.94474502453       
1.12545026444       
0.944739070979      
1.12544583235       
0.944734806105      
1.12544219334       
0.944745121871      
1.12545013587       
0.944739472078      
1.1254466176        
0.94474181345       
1.12544764262       
0.944740133396      
1.1254461683        
0.944740159848      
1.12544687754       
0.944740327347      
1.12544696209       
0.944739028483      
1.1254447904        
0.944740372268      
1.12544628724       
0.944741452181      
1.12544743571       
0.944733481427      