# vtk DataFile Version 3.0
PyPan mesh file. Generated by PyPan, USU AeroLab (c) 2020.
ASCII
DATASET POLYDATA
POINTS 3582 float
-3.75               0.0                 0.0                 
-3.7477004528       -0.00231199967675   0.0                 
-3.7477004528       0.00231199967675    0.0                 
-3.74096465111      -0.00923374481499   0.0                 
-3.74096465111      0.00923374481499    0.0                 
-3.73027825356      -0.0207225605845    0.0                 
-3.73027825356      0.0207225605845     0.0                 
-3.71922087669      0.0                 -0.00445593195036   
-3.71922087669      0.0                 0.00445593195036    
-3.71694016457      -0.00231199967675   -0.00445318454877   
-3.71694016457      -0.00231199967675   0.00445318454877    
-3.71694016457      0.00231199967675    -0.00445318454877   
-3.71694016457      0.00231199967675    0.00445318454877    
-3.71644330025      -0.0367076136172    0.0                 
-3.71644330025      0.0367076136172     0.0                 
-3.71026134491      -0.00923374481499   -0.00444495957345   
-3.71026134491      -0.00923374481499   0.00444495957345    
-3.71026134491      0.00923374481499    -0.00444495957345   
-3.71026134491      0.00923374481499    0.00444495957345    
-3.7005853653       -0.0570903494954    0.0                 
-3.7005853653       0.0570903494954     0.0                 
-3.69966936111      -0.0207225605845    -0.00443130824715   
-3.69966936111      -0.0207225605845    0.00443130824715    
-3.69966936111      0.0207225605845     -0.00443130824715   
-3.69966936111      0.0207225605845     0.00443130824715    
-3.68596553802      -0.0367076136172    -0.00441231392324   
-3.68596553802      -0.0367076136172    0.00441231392324    
-3.68596553802      0.0367076136172     -0.00441231392324   
-3.68596553802      0.0367076136172     0.00441231392324    
-3.6702747345       -0.0570903494954    -0.00438809441403   
-3.6702747345       -0.0570903494954    0.00438809441403    
-3.6702747345       0.0570903494954     -0.00438809441403   
-3.6702747345       0.0570903494954     0.00438809441403    
-3.66396021843      -0.0817451104522    0.0                 
-3.66396021843      0.0817451104522     0.0                 
-3.63401818275      -0.0817451104522    -0.00433475384489   
-3.63401818275      -0.0817451104522    0.00433475384489    
-3.63401818275      0.0817451104522     -0.00433475384489   
-3.63401818275      0.0817451104522     0.00433475384489    
-3.62764120102      0.0                 -0.0175068117678    
-3.62764120102      0.0                 0.0175068117678     
-3.62541723251      -0.00231199967675   -0.0174960177392    
-3.62541723251      -0.00231199967675   0.0174960177392     
-3.62541723251      0.00231199967675    -0.0174960177392    
-3.62541723251      0.00231199967675    0.0174960177392     
-3.61890721321      -0.00923374481499   -0.0174637045711    
-3.61890721321      -0.00923374481499   0.0174637045711     
-3.61890721321      0.00923374481499    -0.0174637045711    
-3.61890721321      0.00923374481499    0.0174637045711     
-3.60859584808      -0.0207225605845    -0.0174100678414    
-3.60859584808      -0.0207225605845    0.0174100678414     
-3.60859584808      0.0207225605845     -0.0174100678414    
-3.60859584808      0.0207225605845     0.0174100678414     
-3.59528255463      -0.0367076136172    -0.0173354428262    
-3.59528255463      -0.0367076136172    0.0173354428262     
-3.59528255463      0.0367076136172     -0.0173354428262    
-3.59528255463      0.0367076136172     0.0173354428262     
-3.58008956909      -0.0570903494954    -0.0172402858734    
-3.58008956909      -0.0570903494954    0.0172402858734     
-3.58008956909      0.0570903494954     -0.0172402858734    
-3.58008956909      0.0570903494954     0.0172402858734     
-3.5626950264       -0.110519878566     0.0                 
-3.5626950264       0.110519878566      0.0                 
-3.54492902756      -0.0817451104522    -0.017030717805     
-3.54492902756      -0.0817451104522    0.017030717805      
-3.54492902756      0.0817451104522     -0.017030717805     
-3.54492902756      0.0817451104522     0.017030717805      
-3.53369760513      -0.110519878566     -0.00419798726216   
-3.53369760513      -0.110519878566     0.00419798726216    
-3.53369760513      0.110519878566      -0.00419798726216   
-3.53369760513      0.110519878566      0.00419798726216    
-3.47751641273      0.0                 -0.0382541082799    
-3.47751641273      0.0                 0.0382541082799     
-3.47538471222      -0.00231199967675   -0.0382305234671    
-3.47538471222      -0.00231199967675   0.0382305234671     
-3.47538471222      0.00231199967675    -0.0382305234671    
-3.47538471222      0.00231199967675    0.0382305234671     
-3.46915197372      -0.00923374481499   -0.0381599143147    
-3.46915197372      -0.00923374481499   0.0381599143147     
-3.46915197372      0.00923374481499    -0.0381599143147    
-3.46915197372      0.00923374481499    0.0381599143147     
-3.45930027962      -0.0207225605845    -0.038042716682     
-3.45930027962      -0.0207225605845    0.038042716682      
-3.45930027962      0.0207225605845     -0.038042716682     
-3.45930027962      0.0207225605845     0.038042716682      
-3.45381784439      -0.143237248063     0.0                 
-3.45381784439      0.143237248063      0.0                 
-3.44741940498      -0.110519878566     -0.0164933800697    
-3.44741940498      -0.110519878566     0.0164933800697     
-3.44741940498      0.110519878566      -0.0164933800697    
-3.44741940498      0.110519878566      0.0164933800697     
-3.44662690163      -0.0367076136172    -0.0378796495497    
-3.44662690163      -0.0367076136172    0.0378796495497     
-3.44662690163      0.0367076136172     -0.0378796495497    
-3.44662690163      0.0367076136172     0.0378796495497     
-3.43225002289      -0.0570903494954    -0.0376717224717    
-3.43225002289      -0.0570903494954    0.0376717224717     
-3.43225002289      0.0570903494954     -0.0376717224717    
-3.43225002289      0.0570903494954     0.0376717224717     
-3.42589449883      -0.143237248063     -0.00404248200357   
-3.42589449883      -0.143237248063     0.00404248200357    
-3.42589449883      0.143237248063      -0.00404248200357   
-3.42589449883      0.143237248063      0.00404248200357    
-3.3988866806       -0.0817451104522    -0.0372137948871    
-3.3988866806       -0.0817451104522    0.0372137948871     
-3.3988866806       0.0817451104522     -0.0372137948871    
-3.3988866806       0.0817451104522     0.0372137948871     
-3.34281229973      -0.143237248063     -0.0158824175596    
-3.34281229973      -0.143237248063     0.0158824175596     
-3.34281229973      0.143237248063      -0.0158824175596    
-3.34281229973      0.143237248063      0.0158824175596     
-3.30598473549      -0.110519878566     -0.0360396578908    
-3.30598473549      -0.110519878566     0.0360396578908     
-3.30598473549      0.110519878566      -0.0360396578908    
-3.30598473549      0.110519878566      0.0360396578908     
-3.27254247665      0.0                 -0.0653547272086    
-3.27254247665      0.0                 0.0653547272086     
-3.2705373764       -0.00231199967675   -0.0653144344687    
-3.2705373764       -0.00231199967675   0.0653144344687     
-3.2705373764       0.00231199967675    -0.0653144344687    
-3.2705373764       0.00231199967675    0.0653144344687     
-3.26468276978      -0.00923374481499   -0.0651938021183    
-3.26468276978      -0.00923374481499   0.0651938021183     
-3.26468276978      0.00923374481499    -0.0651938021183    
-3.26468276978      0.00923374481499    0.0651938021183     
-3.25545930862      -0.0207225605845    -0.0649935752153    
-3.25545930862      -0.0207225605845    0.0649935752153     
-3.25545930862      0.0207225605845     -0.0649935752153    
-3.25545930862      0.0207225605845     0.0649935752153     
-3.24365949631      -0.0367076136172    -0.0647149905562    
-3.24365949631      -0.0367076136172    0.0647149905562     
-3.24365949631      0.0367076136172     -0.0647149905562    
-3.24365949631      0.0367076136172     0.0647149905562     
-3.23039674759      -0.0570903494954    -0.0643597617745    
-3.23039674759      -0.0570903494954    0.0643597617745     
-3.23039674759      0.0570903494954     -0.0643597617745    
-3.23039674759      0.0570903494954     0.0643597617745     
-3.20661687851      -0.143237248063     -0.0347046479583    
-3.20661687851      -0.143237248063     0.0347046479583     
-3.20661687851      0.143237248063      -0.0347046479583    
-3.20661687851      0.143237248063      0.0347046479583     
-3.1994869709       -0.0817451104522    -0.0635774210095    
-3.1994869709       -0.0817451104522    0.0635774210095     
-3.1994869709       0.0817451104522     -0.0635774210095    
-3.1994869709       0.0817451104522     0.0635774210095     
-3.11287641525      -0.110519878566     -0.061571482569     
-3.11287641525      -0.110519878566     0.061571482569      
-3.11287641525      0.110519878566      -0.061571482569     
-3.11287641525      0.110519878566      0.061571482569      
-3.0206618309       -0.143237248063     -0.0592906996608    
-3.0206618309       -0.143237248063     0.0592906996608     
-3.0206618309       0.143237248063      -0.0592906996608    
-3.0206618309       0.143237248063      0.0592906996608     
-3.01776695251      0.0                 -0.0971923843026    
-3.01776695251      0.0                 0.0971923843026     
-3.01591873169      -0.00231199967675   -0.0971324592829    
-3.01591873169      -0.00231199967675   0.0971324592829     
-3.01591873169      0.00231199967675    -0.0971324592829    
-3.01591873169      0.00231199967675    0.0971324592829     
-3.01555466652      -0.179695531726     0.0                 
-3.01555466652      0.179695531726      0.0                 
[...]
CELL_DATA 7160
SCALARS panel_area float 1
LOOKUP_TABLE default
3.62925787355e-05   
3.63148512698e-05   
0.000107916879283   
0.000107983517676   
0.000176705128392   
0.000176814213745   
0.00024090407585    
0.000241052554398   
0.000298930650594   
0.000299115280212   
0.000349393514284   
0.000349608762235   
0.000391097606296   
0.000391338955396   
0.000423056095993   
0.000423317191577   
0.000444511611134   
0.000444785819259   
0.000454969744234   
0.00045524998908    
0.000454236770494   
0.000454517365422   
0.000442444783724   
0.000442717614191   
0.000420052124562   
0.00042031152002    
0.000387827011372   
0.000388066356276   
0.000346813261777   
0.000347027119852   
0.000298323761695   
0.000298507775748   
0.000244033659389   
0.000244184165353   
0.00018639456992    
0.0001865100523     
0.000130266763942   
0.000130346551568   
8.97031804821e-05   
8.97582851269e-05   
8.97031804821e-05   
8.97582851269e-05   
0.000130266763942   
0.000130346551568   
0.00018639456992    
0.0001865100523     
0.000244033659389   
0.000244184165353   
0.000298323761695   
0.000298507775748   
0.000346813261777   
0.000347027119852   
0.000387827011372   
0.000388066356276   
0.000420052124562   
0.00042031152002    
0.000442444783724   
0.000442717614191   
0.000454236770494   
0.000454517365422   
0.000454969744234   
0.00045524998908    
0.000444511611134   
0.000444785819259   
0.000423056095993   
0.000423317191577   
0.000391097606296   
0.000391338955396   
0.000349393514284   
0.000349608762235   
0.000298930650594   
0.000299115280212   
0.00024090407585    
0.000241052554398   
0.000176705128392   
0.000176814213745   
0.000107916879283   
0.000107983517676   
3.62925787355e-05   
3.63148512698e-05   
0.000108406609626   
0.000108607729744   
0.000322355787069   
0.000322951672341   
0.000527843360181   
0.000528820425782   
0.00071963655285    
0.000720967795235   
0.000893006159305   
0.000894659045998   
0.00104379276244    
0.00104572417585    
0.00116842518485    
0.00117058704441    
0.00126394758921    
0.00126628628532    
0.00132809690563    
0.00133055462419    
0.0013593954145     
0.00136191063427    
0.0013572621937     
0.00135977367999    
0.00132208522344    
0.00132453191644    
0.00125523643765    
0.00125755868713    
0.0011590077354     
0.00116115238696    
0.00103652474005    
0.001038442557      
0.000891719182189   
0.000893369360876   
0.00072961460578    
0.000730964638222   
0.000557573580224   
0.000558604782685   
0.000390202654305   
0.000390925799853   
0.000269579336779   
0.000270077341868   
0.000269579336779   
0.000270077341868   
0.000390202654305   
0.000390925799853   
0.000557573580224   
0.000558604782685   
0.00072961460578    
0.000730964638222   
0.000891719182189   
0.000893369360876   
0.00103652474005    
0.001038442557      
0.0011590077354     
0.00116115238696    
0.00125523643765    
0.00125755868713    
0.00132208522344    
0.00132453191644    
0.0013572621937     
0.00135977367999    
0.0013593954145     
0.00136191063427    
0.00132809690563    
0.00133055462419    
0.00126394758921    
0.00126628628532    
0.00116842518485    
0.00117058704441    
0.00104379276244    
0.00104572417585    
0.000893006159305   
0.000894659045998   
0.00071963655285    
0.000720967795235   
0.000527843360181   
0.000528820425782   
0.000322355787069   
0.000322951672341   
0.000108406609626   
0.000108607729744   
0.000179233830416   
0.000179786613749   
0.000532981081269   
0.000534623305414   
0.00087277375739    
0.000875461346618   
0.00118996647837    
0.0011936335356     
0.0014767456126     
0.00148129428361    
0.00172621904497    
0.00173153680964    
0.00193246738192    
0.00193842128056    
0.0020905971101     
0.00209703742637    
0.00219685516371    
0.00220362288279    
0.00224879230859    
0.00225571984241    
0.00224543883831    
0.00225235659703    
0.00218743165922    
0.00219417054532    
0.002077032878      
0.00208343163479    
0.00191803917938    
0.00192394825821    
0.00171563607839    
0.00172092195603    
0.00147636525251    
0.00148091300171    
0.00120859905846    
0.00121232200716    
0.000924652585157   
0.000927502181384   
0.000649002456611   
0.000651001031926   
0.00045151268574    
0.000452903605532   
0.00045151268574    
0.000452903605532   
0.000649002456611   
0.000651001031926   
0.000924652585157   
0.000927502181384   
0.00120859905846    
0.00121232200716    
0.00147636525251    
0.00148091300171    
0.00171563607839    
0.00172092195603    
0.00191803917938    
0.00192394825821    
0.002077032878      
0.00208343163479    
0.00218743165922    
0.00219417054532    
0.00224543883831    
0.00225235659703    
0.00224879230859    
0.00225571984241    
0.00219685516371    
0.00220362288279    
0.0020905971101     
0.00209703742637    
0.00193246738192    
0.00193842128056    
0.00172621904497    
0.00173153680964    
0.0014767456126     
0.00148129428361    
0.00118996647837    
0.0011936335356     
0.00087277375739    
0.000875461346618   
0.000532981081269   
0.000534623305414   
0.000179233830416   
0.000179786613749   
0.000248019066439   
0.00024908618637    
0.00073754831806    
0.000740724430704   
0.00120783880615    
0.00121303829288    
0.00164694453102    
0.00165403313249    
0.00204404633821    
0.00205284693659    
0.00238959328071    
0.00239987960894    
0.00267536267696    
0.00268687923847    
0.00289456243284    
0.00290702328594    
0.00304198106165    
0.00305507673698    
0.00311421805319    
0.00312762516765    
0.00310991973792    
0.00312330696182    
0.00302995456398    
0.00304299726414    
0.00287745099508    
0.00288983801929    
0.00265768527318    
0.00266912610121    
0.00237788371592    
0.00238811979391    
0.00204719002872    
0.00205600336514    
0.00167735234772    
0.00168457323957    
0.00128573406504    
0.00129126867277    
0.000906937211928   
0.000910841954073   
0.000638249664389   
0.000640997983696   
0.000638249664389   
0.000640997983696   
0.000906937211928   
0.000910841954073   
0.00128573406504    
0.00129126867277    
0.00167735234772    
0.00168457323957    
0.00204719002872    
0.00205600336514    
0.00237788371592    
0.00238811979391    
0.00265768527318    
0.00266912610121    
0.00287745099508    
0.00288983801929    
0.00302995456398    
0.00304299726414    
0.00310991973792    
0.00312330696182    
0.00311421805319    
0.00312762516765    
0.00304198106165    
0.00305507673698    
0.00289456243284    
0.00290702328594    
0.00267536267696    
0.00268687923847    
0.00238959328071    
0.00239987960894    
0.00204404633821    
0.00205284693659    
0.00164694453102    
0.00165403313249    
0.00120783880615    
0.00121303829288    
0.00073754831806    
0.000740724430704   
0.000248019066439   
0.00024908618637    
0.000314060345043   
0.000315792172115   
0.000933974271833   
0.000939129740232   
0.00152963593143    
0.00153807972674    
0.00208594959991    
0.0020974629341     
0.00258920939309    
0.00260349772815    
0.00302727697549    
0.00304398829313    
0.00338971596903    
0.003408424164      
0.00366787517099    
0.00368812059655    
0.00385513931672    
0.0038764169447     
0.00394717978212    
0.00396896492904    
0.00394226434036    
0.0039640237478     
0.00384149071844    
0.00386269424265    
0.00364883484274    
0.00366897426643    
0.00337103171677    
0.00338963782798    
0.00301734785027    
0.00303400196443    
0.00259954674991    
0.00261389451908    
0.00213281296532    
0.00214458505631    
0.00163975744325    
0.00164880774168    
0.00116557747875    
0.00117200964748    
0.000834371775663   
0.000838978371324   
0.000834371775663   
0.000838978371324   
0.00116557747875    
0.00117200964748    
0.00163975744325    
0.00164880774168    
0.00213281296532    
0.00214458505631    
0.00259954674991    
0.00261389451908    
0.00301734785027    
0.00303400196443    
0.00337103171677    
0.00338963782798    
0.00364883484274    
0.00366897426643    
0.00384149071844    
0.00386269424265    
0.00394226434036    
0.0039640237478     
0.00394717978212    
0.00396896492904    
0.00385513931672    
0.0038764169447     
0.00366787517099    
0.00368812059655    
0.00338971596903    
0.003408424164      
0.00302727697549    
0.00304398829313    
0.00258920939309    
0.00260349772815    
0.00208594959991    
0.0020974629341     
0.00152963593143    
0.00153807972674    
0.000933974271833   
0.000939129740232   
0.000314060345043   
0.000315792172115   
0.000381309026561   
0.000386002867879   
0.00113344078881    
0.00114738540185    
0.00185473674957    
0.00187756085461    
0.00252654229301    
0.00255763120361    
0.00313240795569    
0.00317095556732    
0.00365816910058    
0.00370318093448    
0.00409178501306    
0.00414213760673    
0.00442334837194    
0.00447777953934    
0.00464531329475    
0.00470247434195    
0.00475290006958    
0.00481138815995    
0.00474456227981    
0.00480294460584    
0.00462222824721    
0.00467910558806    
0.00439133141554    
0.00444536904929    
0.00406060901935    
0.00411057568634    
0.00364187894238    
0.00368669372939    
0.00315020776078    
0.00318897262989    
0.00260550536282    
0.00263756725396    
0.0020385447126     
0.00206362937851    
0.00151109576322    
0.00152968970472    
0.00117205331479    
0.00118647658453    
0.00117205331479    
0.00118647658453    
0.00151109576322    
0.00152968970472    
0.0020385447126     
0.00206362937851    
0.00260550536282    
0.00263756725396    
0.00315020776078    
0.00318897262989    
0.00364187894238    
0.00368669372939    
0.00406060901935    
0.00411057568634    
0.00439133141554    
0.00444536904929    
0.00462222824721    
0.00467910558806    
0.00474456227981    
0.00480294460584    
0.00475290006958    
0.00481138815995    
0.00464531329475    
0.00470247434195    
0.00442334837194    
0.00447777953934    
0.00409178501306    
0.00414213760673    
0.00365816910058    
0.00370318093448    
0.00313240795569    
0.00317095556732    
0.00252654229301    
0.00255763120361    
0.00185473674957    
0.00187756085461    
0.00113344078881    
0.00114738540185    
0.000381309026561   
0.000386002867879   
0.000472102662678   
0.000487482209077   
0.00139994416529    
0.00144555394979    
0.00228075215894    
0.0023550558061     
0.00308906428668    
0.00318970371458    
0.00380559079284    
0.00392957140763    
0.00441615423054    
0.00456002878605    
0.00490992689077    
0.00506988910813    
0.00527832561543    
0.00545028719035    
0.00551510597178    
0.00569478397593    
0.00561738151546    
0.00580038820161    
0.0055866342976     
0.00576864301324    
0.00542899745084    
0.00560586976927    
0.00515469204542    
0.00532262526671    
0.00477726086268    
0.00493290009802    
0.00431331099893    
0.00445383437774    
0.00378341445224    
0.00390667497671    
0.00321549051544    
0.0033202475979     
0.00265406457952    
0.00274053130774    
0.00218141757788    
0.00225248896093    
0.00194108189022    
0.00200431738735    
0.00194108189022    
0.00200431738735    
0.00218141757788    
0.00225248896093    
0.00265406457952    
0.00274053130774    
0.00321549051544    
0.0033202475979     
0.00378341445224    
0.00390667497671    
0.00431331099893    
0.00445383437774    
0.00477726086268    
0.00493290009802    
0.00515469204542    
0.00532262526671    
0.00542899745084    
0.00560586976927    
0.0055866342976     
0.00576864301324    
0.00561738151546    
0.00580038820161    
0.00551510597178    
0.00569478397593    
0.00527832561543    
0.00545028719035    
0.00490992689077    
0.00506988910813    
0.00441615423054    
0.00456002878605    
0.00380559079284    
0.00392957140763    
0.00308906428668    
0.00318970371458    
0.00228075215894    
0.0023550558061     
0.00139994416529    
0.00144555394979    
0.000472102662678   
0.000487482209077   
0.000511330600101   
0.000530999394614   
0.00151666863959    
0.00157501177611    
0.00247214930032    
0.00256724843193    
0.00335055201372    
0.00347944032521    
0.00413096606766    
0.00428987561197    
0.0047977402512     
0.00498230137147    
0.00533876784136    
0.00554413744389    
0.00574438982895    
0.00596536183925    
0.00600759168661    
0.00623869113975    
0.00612507204945    
0.00636069174081    
0.00609827595574    
0.00633286331582    
0.00593373686345    
0.00616199438547    
0.00564263680405    
0.00585969681905    
0.00524017981389    
0.00544175793647    
0.00474542891418    
0.00492797631486    
0.00418229016189    
0.00434317311352    
0.0035831113164     
0.00372094566       
0.00299866722864    
0.00311401881678    
0.00251922122182    
0.00261612869945    
0.0022914943359     
0.00237964466736    
0.0022914943359     
0.00237964466736    
0.00251922122182    
0.00261612869945    
0.00299866722864    
0.00311401881678    
0.0035831113164     
0.00372094566       
0.00418229016189    
0.00434317311352    
0.00474542891418    
0.00492797631486    
0.00524017981389    
0.00544175793647    
0.00564263680405    
0.00585969681905    
0.00593373686345    
0.00616199438547    
0.00609827595574    
0.00633286331582    
0.00612507204945    
0.00636069174081    
0.00600759168661    
0.00623869113975    
0.00574438982895    
0.00596536183925    
0.00533876784136    
0.00554413744389    
0.0047977402512     
0.00498230137147    
0.00413096606766    
0.00428987561197    
0.00335055201372    
0.00347944032521    
0.00247214930032    
0.00256724843193    
0.00151666863959    
0.00157501177611    
0.000511330600101   
0.000530999394614   
0.00088206116362    
0.0010243216001     
0.00259390650121    
0.0030122553111     
0.00415981480001    
0.00483071361396    
0.00551381069561    
0.00640308517774    
0.00662253185957    
0.00769062278986    
0.00747817222017    
0.00868425782032    
0.00808596872315    
0.00939007905929    
0.00845460680075    
0.0098181787421     
0.00859464364383    
0.00998079972343    
0.00852372370426    
0.00989843877134    
0.00827271896979    
0.00960695141923    
0.00788638615682    
0.00915831050241    
0.00741667140042    
0.00861284214784    
0.00691289294833    
0.00802781263583    
0.00641516451254    
0.00744980773044    
0.0059540621647     
0.00691434135163    
0.00555596120168    
0.00645203146739    
0.00525356369627    
0.00610086439228    
0.00509881812263    
0.00592116322347    
0.00516529330282    
0.00599835615663    
0.00516529330282    
0.00599835615663    
0.00509881812263    
0.00592116322347    
0.00525356369627    
0.00610086439228    
0.00555596120168    
0.00645203146739    
0.0059540621647     
0.00691434135163    
0.00641516451254    
0.00744980773044    
0.00691289294833    
0.00802781263583    
0.00741667140042    
0.00861284214784    
0.00788638615682    
0.00915831050241    
0.00827271896979    
0.00960695141923    
0.00852372370426    
0.00989843877134    
0.00859464364383    
0.00998079972343    
0.00845460680075    
0.0098181787421     
0.00808596872315    
0.00939007905929    
0.00747817222017    
0.00868425782032    
0.00662253185957    
0.00769062278986    
0.00551381069561    
0.00640308517774    
0.00415981480001    
0.00483071361396    
0.00259390650121    
0.0030122553111     
0.00088206116362    
0.0010243216001     
0.000848342365931   
0.00106666589689    
0.00249303456375    
0.00313461872907    
0.00399274634736    
0.00502028535282    
0.00528253037194    
0.00664199499201    
0.00633049118304    
0.00795964971427    
0.00713067184589    
0.00896575911296    
0.00769035184908    
0.00966947981998    
0.00802027017045    
0.0100842956035     
0.00813296036519    
0.0102259862537     
0.00804821893462    
0.0101194359668     
0.00779945073355    
0.00980664760883    
0.00743430703736    
0.00934753677063    
0.00700756634339    
0.00881097324935    
0.00657037597189    
0.00826127019028    
0.00616237749364    
0.0077482728752     
0.00580981985588    
0.0073049826818     
0.0055297969018     
0.00695289747848    
0.00534112396138    
0.00671566872526    
0.00527930404388    
0.00663793778994    
0.00540336131726    
0.00679392475308    
0.00540336131726    
0.00679392475308    
0.00527930404388    
0.00663793778994    
0.00534112396138    
0.00671566872526    
0.0055297969018     
0.00695289747848    
0.00580981985588    
0.0073049826818     
0.00616237749364    
0.0077482728752     
0.00657037597189    
0.00826127019028    
0.00700756634339    
0.00881097324935    
0.00743430703736    
0.00934753677063    
0.00779945073355    
0.00980664760883    
0.00804821893462    
0.0101194359668     
0.00813296036519    
0.0102259862537     
0.00802027017045    
0.0100842956035     
0.00769035184908    
0.00966947981998    
0.00713067184589    
0.00896575911296    
0.00633049118304    
0.00795964971427    
0.00528253037194    
0.00664199499201    
0.00399274634736    
0.00502028535282    
0.00249303456375    
0.00313461872907    
0.000848342365931   
0.00106666589689    
0.00063277831784    
0.000876909585301   
0.00186012912802    
0.00257778823802    
0.00298102362713    
0.00413113634545    
0.00394795076057    
0.00547111425577    
0.00473775756417    
0.00656563872408    
0.00534631163914    
0.00740897748918    
0.00577912892262    
0.00800878192828    
0.00604435674675    
0.00837633461725    
0.00615174875963    
0.00852516346405    
0.00611680325901    
0.00847673604725    
0.00596523388515    
0.0082666910278     
0.00573321688114    
0.00794515336064    
0.00546212114906    
0.00756946868667    
0.00519082415678    
0.00719350184838    
0.0049495301793     
0.00685911396813    
0.00475693362187    
0.00659221153815    
0.00462193689943    
0.00640513217658    
0.00455247089338    
0.0063088651159     
0.00456959727457    
0.00633259909194    
0.00471576612034    
0.00653516104345    
0.00471576612034    
0.00653516104345    
0.00456959727457    
0.00633259909194    
0.00455247089338    
0.0063088651159     
0.00462193689943    
0.00640513217658    
0.00475693362187    
0.00659221153815    
0.0049495301793     
0.00685911396813    
0.00519082415678    
0.00719350184838    
0.00546212114906    
0.00756946868667    
0.00573321688114    
0.00794515336064    
0.00596523388515    
0.0082666910278     
0.00611680325901    
0.00847673604725    
0.00615174875963    
0.00852516346405    
0.00604435674675    
0.00837633461725    
0.00577912892262    
0.00800878192828    
0.00534631163914    
0.00740897748918    
0.00473775756417    
0.00656563872408    
0.00394795076057    
0.00547111425577    
0.00298102362713    
0.00413113634545    
0.00186012912802    
0.00257778823802    
0.00063277831784    
0.000876909585301   
0.000344400177331   
0.000517996213097   
0.00101492586431    
0.00152649863507    
0.00163446437584    
0.00245831375963    
0.00217997953378    
0.00327879567795    
0.00263961361917    
0.00397010918718    
0.00301004000007    
0.00452724876966    
0.00329221830472    
0.00495165474508    
0.00348853665115    
0.00524693174873    
0.00360277606709    
0.00541875114509    
0.00364214353225    
0.00547796329904    
0.0036192650736     
0.0054435508678     
0.0035523628448     
0.00534292900869    
0.0034634385451     
0.00520918004454    
0.00337518101624    
0.0050764387497     
0.00330695569484    
0.00497382354246    
0.0032703390595     
0.00491875058452    
0.00326777995822    
0.00491490131374    
0.00329885352631    
0.00496163698347    
0.00337219560531    
0.00507194794874    
0.00351320575676    
0.00528403350173    
0.00351320575676    
0.00528403350173    
0.00337219560531    
0.00507194794874    
0.00329885352631    
0.00496163698347    
0.00326777995822    
0.00491490131374    
0.0032703390595     
0.00491875058452    
0.00330695569484    
0.00497382354246    
0.00337518101624    
0.0050764387497     
0.0034634385451     
0.00520918004454    
0.0035523628448     
0.00534292900869    
0.0036192650736     
0.0054435508678     
0.00364214353225    
0.00547796329904    
0.00360277606709    
0.00541875114509    
0.00348853665115    
0.00524693174873    
0.00329221830472    
0.00495165474508    
0.00301004000007    