# vtk DataFile Version 3.0
PyPan mesh file. Generated by PyPan, USU AeroLab (c) 2020.
ASCII
DATASET POLYDATA
POINTS 3582 float
-3.75               0.0                 0.0                 
-3.7477004528       -0.00231199967675   0.0                 
-3.7477004528       0.00231199967675    0.0                 
-3.74096465111      -0.00923374481499   0.0                 
-3.74096465111      0.00923374481499    0.0                 
-3.73027825356      -0.0207225605845    0.0                 
-3.73027825356      0.0207225605845     0.0                 
-3.71922087669      0.0                 -0.00445593195036   
-3.71922087669      0.0                 0.00445593195036    
-3.71694016457      -0.00231199967675   -0.00445318454877   
-3.71694016457      -0.00231199967675   0.00445318454877    
-3.71694016457      0.00231199967675    -0.00445318454877   
-3.71694016457      0.00231199967675    0.00445318454877    
-3.71644330025      -0.0367076136172    0.0                 
-3.71644330025      0.0367076136172     0.0                 
-3.71026134491      -0.00923374481499   -0.00444495957345   
-3.71026134491      -0.00923374481499   0.00444495957345    
-3.71026134491      0.00923374481499    -0.00444495957345   
-3.71026134491      0.00923374481499    0.00444495957345    
-3.7005853653       -0.0570903494954    0.0                 
-3.7005853653       0.0570903494954     0.0                 
-3.69966936111      -0.0207225605845    -0.00443130824715   
-3.69966936111      -0.0207225605845    0.00443130824715    
-3.69966936111      0.0207225605845     -0.00443130824715   
-3.69966936111      0.0207225605845     0.00443130824715    
-3.68596553802      -0.0367076136172    -0.00441231392324   
-3.68596553802      -0.0367076136172    0.00441231392324    
-3.68596553802      0.0367076136172     -0.00441231392324   
-3.68596553802      0.0367076136172     0.00441231392324    
-3.6702747345       -0.0570903494954    -0.00438809441403   
-3.6702747345       -0.0570903494954    0.00438809441403    
-3.6702747345       0.0570903494954     -0.00438809441403   
-3.6702747345       0.0570903494954     0.00438809441403    
-3.66396021843      -0.0817451104522    0.0                 
-3.66396021843      0.0817451104522     0.0                 
-3.63401818275      -0.0817451104522    -0.00433475384489   
-3.63401818275      -0.0817451104522    0.00433475384489    
-3.63401818275      0.0817451104522     -0.00433475384489   
-3.63401818275      0.0817451104522     0.00433475384489    
-3.62764120102      0.0                 -0.0175068117678    
-3.62764120102      0.0                 0.0175068117678     
-3.62541723251      -0.00231199967675   -0.0174960177392    
-3.62541723251      -0.00231199967675   0.0174960177392     
-3.62541723251      0.00231199967675    -0.0174960177392    
-3.62541723251      0.00231199967675    0.0174960177392     
-3.61890721321      -0.00923374481499   -0.0174637045711    
-3.61890721321      -0.00923374481499   0.0174637045711     
-3.61890721321      0.00923374481499    -0.0174637045711    
-3.61890721321      0.00923374481499    0.0174637045711     
-3.60859584808      -0.0207225605845    -0.0174100678414    
-3.60859584808      -0.0207225605845    0.0174100678414     
-3.60859584808      0.0207225605845     -0.0174100678414    
-3.60859584808      0.0207225605845     0.0174100678414     
-3.59528255463      -0.0367076136172    -0.0173354428262    
-3.59528255463      -0.0367076136172    0.0173354428262     
-3.59528255463      0.0367076136172     -0.0173354428262    
-3.59528255463      0.0367076136172     0.0173354428262     
-3.58008956909      -0.0570903494954    -0.0172402858734    
-3.58008956909      -0.0570903494954    0.0172402858734     
-3.58008956909      0.0570903494954     -0.0172402858734    
-3.58008956909      0.0570903494954     0.0172402858734     
-3.5626950264       -0.110519878566     0.0                 
-3.5626950264       0.110519878566      0.0                 
-3.54492902756      -0.0817451104522    -0.017030717805     
-3.54492902756      -0.0817451104522    0.017030717805      
-3.54492902756      0.0817451104522     -0.017030717805     
-3.54492902756      0.0817451104522     0.017030717805      
-3.53369760513      -0.110519878566     -0.00419798726216   
-3.53369760513      -0.110519878566     0.00419798726216    
-3.53369760513      0.110519878566      -0.00419798726216   
-3.53369760513      0.110519878566      0.00419798726216    
-3.47751641273      0.0                 -0.0382541082799    
-3.47751641273      0.0                 0.0382541082799     
-3.47538471222      -0.00231199967675   -0.0382305234671    
-3.47538471222      -0.00231199967675   0.0382305234671     
-3.47538471222      0.00231199967675    -0.0382305234671    
-3.47538471222      0.00231199967675    0.0382305234671     
-3.46915197372      -0.00923374481499   -0.0381599143147    
-3.46915197372      -0.00923374481499   0.0381599143147     
-3.46915197372      0.00923374481499    -0.0381599143147    
-3.46915197372      0.00923374481499    0.0381599143147     
-3.45930027962      -0.0207225605845    -0.038042716682     
-3.45930027962      -0.0207225605845    0.038042716682      
-3.45930027962      0.0207225605845     -0.038042716682     
-3.45930027962      0.0207225605845     0.038042716682      
-3.45381784439      -0.143237248063     0.0                 
-3.45381784439      0.143237248063      0.0                 
-3.44741940498      -0.110519878566     -0.0164933800697    
-3.44741940498      -0.110519878566     0.0164933800697     
-3.44741940498      0.110519878566      -0.0164933800697    
-3.44741940498      0.110519878566      0.0164933800697     
-3.44662690163      -0.0367076136172    -0.0378796495497    
-3.44662690163      -0.0367076136172    0.0378796495497     
-3.44662690163      0.0367076136172     -0.0378796495497    
-3.44662690163      0.0367076136172     0.0378796495497     
-3.43225002289      -0.0570903494954    -0.0376717224717    
-3.43225002289      -0.0570903494954    0.0376717224717     
-3.43225002289      0.0570903494954     -0.0376717224717    
-3.43225002289      0.0570903494954     0.0376717224717     
-3.42589449883      -0.143237248063     -0.00404248200357   
-3.42589449883      -0.143237248063     0.00404248200357    
-3.42589449883      0.143237248063      -0.00404248200357   
-3.42589449883      0.143237248063      0.00404248200357    
-3.3988866806       -0.0817451104522    -0.0372137948871    
-3.3988866806       -0.0817451104522    0.0372137948871     
-3.3988866806       0.0817451104522     -0.0372137948871    
-3.3988866806       0.0817451104522     0.0372137948871     
-3.34281229973      -0.143237248063     -0.0158824175596    
-3.34281229973      -0.143237248063     0.0158824175596     
-3.34281229973      0.143237248063      -0.0158824175596    
-3.34281229973      0.143237248063      0.0158824175596     
-3.30598473549      -0.110519878566     -0.0360396578908    
-3.30598473549      -0.110519878566     0.0360396578908     
-3.30598473549      0.110519878566      -0.0360396578908    
-3.30598473549      0.110519878566      0.0360396578908     
-3.27254247665      0.0                 -0.0653547272086    
-3.27254247665      0.0                 0.0653547272086     
-3.2705373764       -0.00231199967675   -0.0653144344687    
-3.2705373764       -0.00231199967675   0.0653144344687     
-3.2705373764       0.00231199967675    -0.0653144344687    
-3.2705373764       0.00231199967675    0.0653144344687     
-3.26468276978      -0.00923374481499   -0.0651938021183    
-3.26468276978      -0.00923374481499   0.0651938021183     
-3.26468276978      0.00923374481499    -0.0651938021183    
-3.26468276978      0.00923374481499    0.0651938021183     
-3.25545930862      -0.0207225605845    -0.0649935752153    
-3.25545930862      -0.0207225605845    0.0649935752153     
-3.25545930862      0.0207225605845     -0.0649935752153    
-3.25545930862      0.0207225605845     0.0649935752153     
-3.24365949631      -0.0367076136172    -0.0647149905562    
-3.24365949631      -0.0367076136172    0.0647149905562     
-3.24365949631      0.0367076136172     -0.0647149905562    
-3.24365949631      0.0367076136172     0.0647149905562     
-3.23039674759      -0.0570903494954    -0.0643597617745    
-3.23039674759      -0.0570903494954    0.0643597617745     
-3.23039674759      0.0570903494954     -0.0643597617745    
-3.23039674759      0.0570903494954     0.0643597617745     
-3.20661687851      -0.143237248063     -0.0347046479583    
-3.20661687851      -0.143237248063     0.0347046479583     
-3.20661687851      0.143237248063      -0.0347046479583    
-3.20661687851      0.143237248063      0.0347046479583     
-3.1994869709       -0.0817451104522    -0.0635774210095    
-3.1994869709       -0.0817451104522    0.0635774210095     
-3.1994869709       0.0817451104522     -0.0635774210095    
-3.1994869709       0.0817451104522     0.0635774210095     
-3.11287641525      -0.110519878566     -0.061571482569     
-3.11287641525      -0.110519878566     0.061571482569      
-3.11287641525      0.110519878566      -0.061571482569     
-3.11287641525      0.110519878566      0.061571482569      
-3.0206618309       -0.143237248063     -0.0592906996608    
-3.0206618309       -0.143237248063     0.0592906996608     
-3.0206618309       0.143237248063      -0.0592906996608    
-3.0206618309       0.143237248063      0.0592906996608     
-3.01776695251      0.0                 -0.0971923843026    
-3.01776695251      0.0                 0.0971923843026     
-3.01591873169      -0.00231199967675   -0.0971324592829    
-3.01591873169      -0.00231199967675   0.0971324592829     
-3.01591873169      0.00231199967675    -0.0971324592829    
-3.01591873169      0.00231199967675    0.0971324592829     
-3.01555466652      -0.179695531726     0.0                 
-3.01555466652      0.179695531726      0.0                 
[...]
CELL_DATA 7160
SCALARS panel_area float 1
LOOKUP_TABLE default
3.6292577538e-05    
3.63148516386e-05   
0.000107916875614   
0.000107983517216   
0.000176705126144   
0.000176814208129   
0.000240904074589   
0.000241052543745   
0.000298930650551   
0.000299115282555   
0.000349393505823   
0.000349608755702   
0.000391097587731   
0.000391338939705   
0.000423056096324   
0.000423317183943   
0.00044451159588    
0.000444785794348   
0.000454969739267   
0.00045524998025    
0.00045423677068    
0.000454517354214   
0.000442444776635   
0.00044271761194    
0.000420052111523   
0.000420311505756   
0.000387827011076   
0.000388066354782   
0.000346813263205   
0.000347027116767   
0.00029832375708    
0.000298507763911   
0.000244033653837   
0.000244184150083   
0.000186394563702   
0.000186510040563   
0.000130266762172   
0.000130346550752   
8.97031751894e-05   
8.97582844901e-05   
8.97031751894e-05   
8.97582844901e-05   
0.000130266762172   
0.000130346550752   
0.000186394563702   
0.000186510040563   
0.000244033653837   
0.000244184150083   
0.00029832375708    
0.000298507763911   
0.000346813263205   
0.000347027116767   
0.000387827011076   
0.000388066354782   
0.000420052111523   
0.000420311505756   
0.000442444776635   
0.00044271761194    
0.00045423677068    
0.000454517354214   
0.000454969739267   
0.00045524998025    
0.00044451159588    
0.000444785794348   
0.000423056096324   
0.000423317183943   
0.000391097587731   
0.000391338939705   
0.000349393505823   
0.000349608755702   
0.000298930650551   
0.000299115282555   
0.000240904074589   
0.000241052543745   
0.000176705126144   
0.000176814208129   
0.000107916875614   
0.000107983517216   
3.6292577538e-05    
3.63148516386e-05   
0.000108406609993   
0.00010860772599    
0.000322355784791   
0.000322951654214   
0.000527843336787   
0.000528820408073   
0.000719636513299   
0.000720967756189   
0.000893006126973   
0.000894659011603   
0.00104379272752    
0.00104572411004    
0.00116842517112    
0.00117058701437    
0.00126394760589    
0.00126628629466    
0.00132809680379    
0.00133055456325    
0.00135939541196    
0.00136191056808    
0.00135726223053    
0.00135977361035    
0.00132208521612    
0.00132453186405    
0.00125523644097    
0.00125755861953    
0.00115900767404    
0.00116115238608    
0.00103652471843    
0.0010384425099     
0.000891719182723   
0.000893369325434   
0.00072961457082    
0.0007309646012     
0.000557573581328   
0.000558604766199   
0.00039020262709    
0.000390925774748   
0.000269579334076   
0.000270077332206   
0.000269579334076   
0.000270077332206   
0.00039020262709    
0.000390925774748   
0.000557573581328   
0.000558604766199   
0.00072961457082    
0.0007309646012     
0.000891719182723   
0.000893369325434   
0.00103652471843    
0.0010384425099     
0.00115900767404    
0.00116115238608    
0.00125523644097    
0.00125755861953    
0.00132208521612    
0.00132453186405    
0.00135726223053    
0.00135977361035    
0.00135939541196    
0.00136191056808    
0.00132809680379    
0.00133055456325    
0.00126394760589    
0.00126628629466    
0.00116842517112    
0.00117058701437    
0.00104379272752    
0.00104572411004    
0.000893006126973   
0.000894659011603   
0.000719636513299   
0.000720967756189   
0.000527843336787   
0.000528820408073   
0.000322355784791   
0.000322951654214   
0.000108406609993   
0.00010860772599    
0.000179233821247   
0.000179786610933   
0.000532981088066   
0.000534623288342   
0.000872773738442   
0.000875461323758   
0.00118996650506    
0.00119363350485    
0.0014767455701     
0.00148129423468    
0.00172621905683    
0.00173153678162    
0.00193246729773    
0.00193842127569    
0.00209059701507    
0.00209703729859    
0.00219685509393    
0.00220362286722    
0.00224879235124    
0.00225571980168    
0.00224543879872    
0.00225235654649    
0.00218743162548    
0.00219417055268    
0.00207703287023    
0.00208343157355    
0.00191803908237    
0.00192394821297    
0.0017156360839     
0.00172092187445    
0.00147636516431    
0.00148091298977    
0.00120859903757    
0.00121232195002    
0.000924652569775   
0.00092750212703    
0.00064900241646    
0.000651001002722   
0.000451512682038   
0.000452903615948   
0.000451512682038   
0.000452903615948   
0.00064900241646    
0.000651001002722   
0.000924652569775   
0.00092750212703    
0.00120859903757    
0.00121232195002    
0.00147636516431    
0.00148091298977    
0.0017156360839     
0.00172092187445    
0.00191803908237    
0.00192394821297    
0.00207703287023    
0.00208343157355    
0.00218743162548    
0.00219417055268    
0.00224543879872    
0.00225235654649    
0.00224879235124    
0.00225571980168    
0.00219685509393    
0.00220362286722    
0.00209059701507    
0.00209703729859    
0.00193246729773    
0.00193842127569    
0.00172621905683    
0.00173153678162    
0.0014767455701     
0.00148129423468    
0.00118996650506    
0.00119363350485    
0.000872773738442   
0.000875461323758   
0.000532981088066   
0.000534623288342   
0.000179233821247   
0.000179786610933   
0.000248019050422   
0.000249086189664   
0.000737548304362   
0.000740724410425   
0.00120783881318    
0.00121303823826    
0.00164694445411    
0.00165403310615    
0.00204404634169    
0.00205284686499    
0.00238959323706    
0.00239987950126    
0.00267536263431    
0.00268687928104    
0.00289456240985    
0.00290702317212    
0.00304198107696    
0.0030550766662     
0.00311421812175    
0.0031276251134     
0.00310991966337    
0.0031233068857     
0.00302995443149    
0.00304299725267    
0.00287745095273    
0.00288983805381    
0.002657685321      
0.00266912607909    
0.00237788367868    
0.00238811977423    
0.00204719004775    
0.00205600322919    
0.00167735234096    
0.00168457321252    
0.0012857340226     
0.00129126866878    
0.000906937197204   
0.000910841878059   
0.000638249630399   
0.000640997948072   
0.000638249630399   
0.000640997948072   
0.000906937197204   
0.000910841878059   
0.0012857340226     
0.00129126866878    
0.00167735234096    
0.00168457321252    
0.00204719004775    
0.00205600322919    
0.00237788367868    
0.00238811977423    
0.002657685321      
0.00266912607909    
0.00287745095273    
0.00288983805381    
0.00302995443149    
0.00304299725267    
0.00310991966337    
0.0031233068857     
0.00311421812175    
0.0031276251134     
0.00304198107696    
0.0030550766662     
0.00289456240985    
0.00290702317212    
0.00267536263431    
0.00268687928104    
0.00238959323706    
0.00239987950126    
0.00204404634169    
0.00205284686499    
0.00164694445411    
0.00165403310615    
0.00120783881318    
0.00121303823826    
0.000737548304362   
0.000740724410425   
0.000248019050422   
0.000249086189664   
0.00031406034771    
0.000315792157259   
0.000933974270585   
0.000939129722178   
0.00152963588052    
0.00153807964737    
0.00208594955925    
0.00209746292918    
0.00258920933499    
0.0026034976911     
0.00302727686122    
0.00304398833196    
0.00338971584704    
0.00340842402662    
0.00366787508525    
0.0036881203879     
0.00385513937431    
0.00387641686194    
0.0039471796723     
0.00396896463562    
0.00394226425479    
0.00396402375575    
0.00384149051117    
0.00386269423668    
0.00364883479736    
0.00366897413024    
0.0033710317093     
0.00338963773877    
0.0030173478576     
0.00303400182821    
0.00259954671549    
0.0026138944624     
0.00213281293565    
0.00214458501678    
0.00163975740518    
0.0016488077685     
0.00116557748661    
0.00117200958069    
0.000834371736939   
0.000838978359981   
0.000834371736939   
0.000838978359981   
0.00116557748661    
0.00117200958069    
0.00163975740518    
0.0016488077685     
0.00213281293565    
0.00214458501678    
0.00259954671549    
0.0026138944624     
0.0030173478576     
0.00303400182821    
0.0033710317093     
0.00338963773877    
0.00364883479736    
0.00366897413024    
0.00384149051117    
0.00386269423668    
0.00394226425479    
0.00396402375575    
0.0039471796723     
0.00396896463562    
0.00385513937431    
0.00387641686194    
0.00366787508525    
0.0036881203879     
0.00338971584704    
0.00340842402662    
0.00302727686122    
0.00304398833196    
0.00258920933499    
0.0026034976911     
0.00208594955925    
0.00209746292918    
0.00152963588052    
0.00153807964737    
0.000933974270585   
0.000939129722178   
0.00031406034771    
0.000315792157259   
0.000381309015421   
0.000386002853581   
0.00113344077225    
0.00114738534567    
0.00185473667686    
0.00187756082259    
0.00252654229405    
0.00255763115217    
0.00313240787882    
0.00317095554494    
0.00365816896431    
0.00370318096493    
0.00409178500802    
0.00414213744612    
0.00442334825886    
0.00447777934627    
0.00464531322572    
0.0047024741626     
0.00475289995461    
0.00481138814959    
0.00474456223116    
0.00480294438916    
0.00462222817709    
0.00467910532095    
0.00439133128837    
0.00444536878208    
0.00406060906194    
0.00411057571246    
0.00364187891856    
0.00368669365092    
0.00315020779066    
0.00318897256377    
0.00260550524869    
0.00263756712738    
0.00203854470842    
0.0020636293097     
0.00151109569908    
0.00152968963465    
0.00117205331336    
0.00118647656946    
0.00117205331336    
0.00118647656946    
0.00151109569908    
0.00152968963465    
0.00203854470842    
0.0020636293097     
0.00260550524869    
0.00263756712738    
0.00315020779066    
0.00318897256377    
0.00364187891856    
0.00368669365092    
0.00406060906194    
0.00411057571246    
0.00439133128837    
0.00444536878208    
0.00462222817709    
0.00467910532095    
0.00474456223116    
0.00480294438916    
0.00475289995461    
0.00481138814959    
0.00464531322572    
0.0047024741626     
0.00442334825886    
0.00447777934627    
0.00409178500802    
0.00414213744612    
0.00365816896431    
0.00370318096493    
0.00313240787882    
0.00317095554494    
0.00252654229405    
0.00255763115217    
0.00185473667686    
0.00187756082259    
0.00113344077225    
0.00114738534567    
0.000381309015421   
0.000386002853581   
0.000472102655501   
0.000487482209453   
0.00139994414163    
0.00144555388319    
0.00228075213428    
0.00235505574804    
0.00308906417427    
0.0031897036912     
0.00380559073183    
0.00392957141877    
0.00441615411859    
0.00456002859969    
0.00490992697966    
0.00506988892567    
0.00527832545476    
0.00545028702445    
0.0055151057138     
0.00569478394041    
0.00561738152558    
0.00580038812816    
0.00558663424543    
0.00576864280049    
0.00542899722851    
0.00560586946176    
0.00515469194253    
0.00532262487145    
0.00477726088027    
0.00493289994359    
0.00431331095732    
0.00445383426189    
0.00378341446767    
0.00390667503256    
0.00321549039313    
0.00332024741321    
0.00265406440404    
0.00274053135132    
0.00218141756182    
0.00225248892524    
0.00194108175597    
0.00200431733511    
0.00194108175597    
0.00200431733511    
0.00218141756182    
0.00225248892524    
0.00265406440404    
0.00274053135132    
0.00321549039313    
0.00332024741321    
0.00378341446767    
0.00390667503256    
0.00431331095732    
0.00445383426189    
0.00477726088027    
0.00493289994359    
0.00515469194253    
0.00532262487145    
0.00542899722851    
0.00560586946176    
0.00558663424543    
0.00576864280049    
0.00561738152558    
0.00580038812816    
0.0055151057138     
0.00569478394041    
0.00527832545476    
0.00545028702445    
0.00490992697966    
0.00506988892567    
0.00441615411859    
0.00456002859969    
0.00380559073183    
0.00392957141877    
0.00308906417427    
0.0031897036912     
0.00228075213428    
0.00235505574804    
0.00139994414163    
0.00144555388319    
0.000472102655501   
0.000487482209453   
0.000511330627689   
0.000530999371202   
0.00151666863611    
0.00157501172527    
0.00247214920474    
0.0025672484291     
0.0033505518607     
0.00347944022655    
0.00413096577644    
0.0042898754778     
0.0047977402011     
0.00498230127863    
0.00533876758631    
0.00554413733828    
0.00574438979084    
0.00596536181812    
0.00600759159619    
0.00623869108463    
0.00612507215014    
0.00636069142372    
0.00609827585902    
0.00633286302862    
0.00593373668005    
0.00616199412039    
0.00564263685153    
0.00585969681552    
0.00524017952344    
0.00544175778817    
0.00474542882964    
0.00492797617736    
0.00418229002833    
0.00434317294253    
0.00358311114418    
0.00372094561282    
0.00299866713326    
0.00311401865655    
0.00251922126912    
0.00261612858358    
0.00229149422023    
0.00237964463401    
0.00229149422023    
0.00237964463401    
0.00251922126912    
0.00261612858358    
0.00299866713326    
0.00311401865655    
0.00358311114418    
0.00372094561282    
0.00418229002833    
0.00434317294253    
0.00474542882964    
0.00492797617736    
0.00524017952344    
0.00544175778817    
0.00564263685153    
0.00585969681552    
0.00593373668005    
0.00616199412039    
0.00609827585902    
0.00633286302862    
0.00612507215014    
0.00636069142372    
0.00600759159619    
0.00623869108463    
0.00574438979084    
0.00596536181812    
0.00533876758631    
0.00554413733828    
0.0047977402011     
0.00498230127863    
0.00413096577644    
0.0042898754778     
0.0033505518607     
0.00347944022655    
0.00247214920474    
0.0025672484291     
0.00151666863611    
0.00157501172527    
0.000511330627689   
0.000530999371202   
0.000882061120799   
0.00102432155017    
0.00259390637377    
0.00301225525761    
0.00415981463454    
0.00483071342219    
0.00551381067016    
0.00640308482252    
0.00662253185794    
0.00769062241281    
0.00747817176616    
0.00868425735464    
0.00808596845853    
0.00939007887315    
0.00845460703928    
0.00981817830675    
0.00859464375853    
0.00998079930482    
0.00852372339587    
0.00989843841495    
0.00827271871967    
0.00960695147165    
0.00788638619916    
0.00915831061545    
0.00741667137987    
0.00861284173189    
0.00691289255452    
0.00802781216522    
0.00641516439548    
0.00744980791932    
0.0059540619978     
0.00691434083288    
0.00555596085691    
0.00645203134584    
0.00525356348688    
0.00610086444342    
0.00509881807293    
0.00592116344169    
0.00516529293912    
0.00599835572228    
0.00516529293912    
0.00599835572228    
0.00509881807293    
0.00592116344169    
0.00525356348688    
0.00610086444342    
0.00555596085691    
0.00645203134584    
0.0059540619978     
0.00691434083288    
0.00641516439548    
0.00744980791932    
0.00691289255452    
0.00802781216522    
0.00741667137987    
0.00861284173189    
0.00788638619916    
0.00915831061545    
0.00827271871967    
0.00960695147165    
0.00852372339587    
0.00989843841495    
0.00859464375853    
0.00998079930482    
0.00845460703928    
0.00981817830675    
0.00808596845853    
0.00939007887315    
0.00747817176616    
0.00868425735464    
0.00662253185794    
0.00769062241281    
0.00551381067016    
0.00640308482252    
0.00415981463454    
0.00483071342219    
0.00259390637377    
0.00301225525761    
0.000882061120799   
0.00102432155017    
0.000848342360242   
0.00106666588007    
0.00249303445043    
0.00313461887015    
0.0039927464639     
0.00502028513452    
0.00528253013325    
0.00664199514136    
0.00633049109731    
0.00795964973708    
0.00713067186272    
0.00896575921624    
0.007690352217      
0.00966947952126    
0.00802027026972    
0.0100842955842     
0.00813295997415    
0.0102259858996     
0.00804821844805    
0.0101194359565     
0.00779945049904    
0.00980664704913    
0.00743430709558    
0.00934753676569    
0.00700756646663    
0.00881097300175    
0.00657037590951    
0.00826127042533    
0.00616237738808    
0.00774827310283    
0.00580981996602    
0.00730498270186    
0.00552979665911    
0.00695289745405    
0.00534112394541    
0.00671566878781    
0.00527930396326    
0.00663793773809    
0.00540336114844    
0.00679392454001    
0.00540336114844    
0.00679392454001    
0.00527930396326    
0.00663793773809    
0.00534112394541    
0.00671566878781    
0.00552979665911    
0.00695289745405    
0.00580981996602    
0.00730498270186    
0.00616237738808    
0.00774827310283    
0.00657037590951    
0.00826127042533    
0.00700756646663    
0.00881097300175    
0.00743430709558    
0.00934753676569    
0.00779945049904    
0.00980664704913    
0.00804821844805    
0.0101194359565     
0.00813295997415    
0.0102259858996     
0.00802027026972    
0.0100842955842     
0.007690352217      
0.00966947952126    
0.00713067186272    
0.00896575921624    
0.00633049109731    
0.00795964973708    
0.00528253013325    
0.00664199514136    
0.0039927464639     
0.00502028513452    
0.00249303445043    
0.00313461887015    
0.000848342360242   
0.00106666588007    
0.000632778315903   
0.000876909573696   
0.00186012912042    
0.00257778815598    
0.00298102365469    
0.0041311362352     
0.00394795083802    
0.0054711143631     
0.00473775762909    
0.00656563872749    
0.00534631150828    
0.00740897751555    
0.00577912892763    
0.00800878180356    
0.00604435660945    
0.00837633425714    
0.00615174862309    
0.00852516297103    
0.00611680329241    
0.0084767359183     
0.0059652337148     
0.00826669071636    
0.0057332166802     
0.00794515320063    
0.005462120982      
0.00756946909069    
0.0051908240929     
0.007193501823      
0.00494953006912    
0.00685911391134    
0.00475693359259    
0.00659221202918    
0.00462193673642    
0.00640513188239    
0.00455247091675    
0.0063088651373     
0.00456959726602    
0.00633259905582    
0.0047157659993     
0.0065351608942     
0.0047157659993     
0.0065351608942     
0.00456959726602    
0.00633259905582    
0.00455247091675    
0.0063088651373     
0.00462193673642    
0.00640513188239    
0.00475693359259    
0.00659221202918    
0.00494953006912    
0.00685911391134    
0.0051908240929     
0.007193501823      
0.005462120982      
0.00756946909069    
0.0057332166802     
0.00794515320063    
0.0059652337148     
0.00826669071636    
0.00611680329241    
0.0084767359183     
0.00615174862309    
0.00852516297103    
0.00604435660945    
0.00837633425714    
0.00577912892763    
0.00800878180356    
0.00534631150828    
0.00740897751555    
0.00473775762909    
0.00656563872749    
0.00394795083802    
0.0054711143631     
0.00298102365469    
0.0041311362352     
0.00186012912042    
0.00257778815598    
0.000632778315903   
0.000876909573696   
0.00034440017123    
0.000517996187703   
0.0010149258139     
0.00152649864322    
0.00163446438442    
0.00245831366649    
0.00217997942974    
0.0032787956015     
0.00263961366033    
0.00397010913283    
0.00301003984121    
0.004527248789      
0.00329221829746    
0.00495165450234    
0.00348853640427    
0.00524693159044    
0.00360277608502    
0.00541875094139    
0.00364214352079    
0.00547796302494    
0.00361926504789    
0.00544355061222    
0.0035523626825     
0.00534292876245    
0.00346343856104    
0.00520918006844    
0.00337518098686    
0.00507643870427    
0.00330695572554    
0.00497382323338    
0.00327033888673    
0.00491875047396    
0.00326777987946    
0.00491490100529    
0.00329885347523    
0.00496163680495    
0.00337219555162    
0.00507194778311    
0.00351320569351    
0.00528403341372    
0.00351320569351    
0.00528403341372    
0.00337219555162    
0.00507194778311    
0.00329885347523    
0.00496163680495    
0.00326777987946    
0.00491490100529    
0.00327033888673    
0.00491875047396    
0.00330695572554    
0.00497382323338    
0.00337518098686    
0.00507643870427    
0.00346343856104    
0.00520918006844    
0.0035523626825     
0.00534292876245    
0.00361926504789    
0.00544355061222    
0.00364214352079    
0.00547796302494    
0.00360277608502    
0.00541875094139    
0.00348853640427    
0.00524693159044    
0.00329221829746    
0.00495165450234    
0.00301003984121    