# vtk DataFile Version 3.0
PyPan mesh file. Generated by PyPan, USU AeroLab (c) 2020.
ASCII
DATASET POLYDATA
POINTS 4838 float
-0.39594            -0.055117           0.69                
-0.085785           -0.059992           0.69                
-0.085785           -0.072544           0.69                
-0.39594            -0.064677           0.69                
-2.8772             -0.032983           0.69                
-2.567              -0.018914           0.69                
2.0853              0.057716            0.69                
2.3955              0.069162            0.69                
-0.39594            -0.00050744         0.69                
-0.085785           0.0031506           0.69                
7.3579              0.020603            0.69                
7.0478              0.070149            0.69                
7.0478              0.18163             0.69                
7.3579              0.097637            0.69                
-4.1178             -0.025077           0.69                
-4.1178             -0.40454            0.69                
-5.0483             -0.027445           0.69                
-5.3584             -0.032245           0.69                
-5.0483             -0.039143           0.69                
-5.3584             -0.042429           0.69                
3.3259              0.042804            0.69                
3.6361              0.040134            0.69                
3.6361              0.027866            0.69                
3.3259              0.02909             0.69                
2.0853              0.052605            0.69                
2.3955              0.049806            0.69                
2.3955              0.041304            0.69                
2.0853              0.043718            0.69                
0.84468             -0.071213           0.69                
1.1548              -0.072701           0.69                
1.1548              -0.089318           0.69                
0.84468             -0.0885             0.69                
-5.3584             -0.060697           0.69                
-5.0483             -0.026982           0.69                
-5.0483             -0.013789           0.69                
-5.3584             -0.060633           0.69                
-1.6366             -0.011649           0.69                
-1.3264             -0.010153           0.69                
-4.1178             -0.049812           0.69                
-3.8076             -0.045124           0.69                
0.84468             0.021046            0.69                
1.1548              0.028864            0.69                
-6.599              -0.49429            0.69                
-6.2954             -0.52415            0.69                
-6.2889             -0.047103           0.69                
-6.599              -0.056362           0.69                
-6.2889             -0.053159           0.69                
6.1173              0.065592            0.69                
5.8072              0.024763            0.69                
6.1173              0.060385            0.69                
5.8072              0.024858            0.69                
4.8767              0.030966            0.69                
4.5665              0.033267            0.69                
4.8767              0.024429            0.69                
4.5665              0.024644            0.69                
-7.5295             -0.23212            0.69                
-7.8397             -0.26428            0.69                
-7.5295             -0.25208            0.69                
5.8072              0.21512             0.69                
6.1173              0.22326             0.69                
0.22437             -0.046694           0.69                
0.53453             -0.050458           0.69                
0.53453             -0.030312           0.69                
0.22437             -0.026377           0.69                
-0.39594            -0.035737           0.69                
-0.085785           -0.041427           0.69                
-0.085785           -0.021581           0.69                
-0.39594            -0.016155           0.69                
-2.2569             0.036993            0.69                
-1.9467             0.014654            0.69                
-1.9467             0.035121            0.69                
-2.2569             0.058976            0.69                
-0.7061             -0.02885            0.69                
-0.7061             -0.014298           0.69                
-1.0163             -0.0038453          0.69                
-1.6366             -0.0031278          0.69                
-1.3264             -0.01159            0.69                
-1.3264             0.0037624           0.69                
-1.6366             0.013535            0.69                
5.1869              0.011333            0.69                
5.497               0.012008            0.69                
4.5665              -0.028143           0.69                
4.8767              -0.022887           0.69                
4.8767              -0.0089712          0.69                
4.5665              -0.015891           0.69                
5.8072              0.0091591           0.69                
6.1173              0.012707            0.69                
6.1173              0.035109            0.69                
5.8072              0.015882            0.69                
-1.3264             -0.048654           0.69                
-1.6366             -0.050621           0.69                
-1.3264             -0.038557           0.69                
-1.6366             -0.043337           0.69                
-2.567              -0.056777           0.69                
-2.8772             -0.061876           0.69                
-2.8772             -0.060457           0.69                
-2.567              -0.055692           0.69                
2.3955              0.06754             0.69                
2.0853              0.060143            0.69                
2.3955              0.089595            0.69                
2.0853              0.090196            0.69                
0.84468             0.017083            0.69                
1.1548              0.02798             0.69                
1.1548              0.05623             0.69                
0.84468             0.046115            0.69                
2.3955              -0.031055           0.69                
2.0853              -0.029856           0.69                
3.6361              -0.037217           0.69                
3.3259              -0.034702           0.69                
0.22437             -0.064628           0.69                
0.53453             -0.068538           0.69                
0.53453             -0.086062           0.69                
0.22437             -0.082129           0.69                
2.7056              -0.063406           0.69                
3.0158              -0.057819           0.69                
2.7056              -0.075425           0.69                
3.0158              -0.068776           0.69                
2.0853              -0.084762           0.69                
2.3955              -0.079731           0.69                
2.3955              -0.066762           0.69                
2.0853              -0.070308           0.69                
-5.3584             -0.037129           0.69                
-5.0483             -0.024892           0.69                
-5.0483             -0.015435           0.69                
-5.3584             -0.047359           0.69                
-4.583              -0.17523            0.69                
-4.583              -0.060964           0.69                
-2.567              0.029616            0.69                
-2.8772             0.015744            0.69                
-2.2569             0.006346            0.69                
-1.9467             -0.0085229          0.69                
-1.9467             0.00060451          0.69                
-2.2569             0.020318            0.69                
-7.2194             -0.22705            0.69                
-6.9092             -0.28579            0.69                
7.0478              0.027244            0.69                
7.3579              0.02626             0.69                
7.3579              0.04729             0.69                
7.0478              0.047352            0.69                
5.1869              0.026342            0.69                
5.497               0.04499             0.69                
5.497               0.053038            0.69                
5.1869              0.033044            0.69                
4.5665              -0.0050413          0.69                
4.8767              0.011179            0.69                
4.8767              0.014414            0.69                
4.5665              -0.003697           0.69                
-9.0803             -0.26732            0.69                
-8.7701             -0.18402            0.69                
-4.0281             -0.64747            0.69                
-3.9736             -0.64696            0.69                
-4.0466             -0.64717            0.69                
-4.1013             -0.64737            0.69                
-3.9702             -0.64852            0.69                
-4.024              -0.64729            0.69                
-3.897              -0.64974            0.69                
-3.9506             -0.64935            0.69                
-5.0483             -0.027913           0.69                
-5.3584             -0.018455           0.69                
-5.0483             -0.016774           0.69                
-5.3584             -0.021095           0.69                
[...]
CELL_DATA 9566
SCALARS panel_area float 1
LOOKUP_TABLE default
0.08921699655       
0.08682420023       
0.05279039552       
0.000180476445      
2.0799025e-05       
1.3811428e-05       
0.00022353942       
2.6209765e-05       
1.8218294e-05       
0.00026679332       
3.1093705e-05       
2.1596614e-05       
0.000332481         
4.0126195e-05       
2.522955995e-05     
0.000374692955      
4.2464155e-05       
3.073633245e-05     
0.00043404813       
4.1952625e-05       
3.20321e-05         
0.00053606591       
6.3069655e-05       
3.6147566e-05       
0.00062784661       
4.9859065e-05       
5.36473e-06         
0.000752007375      
7.2313704e-05       
1.021212e-05        
0.0008798779985     
0.000121605459      
4.7108392e-05       
0.001000798924      
0.0001503103175     
5.1935165e-05       
0.001134677112      
0.000172091923      
1.6550745e-05       
0.00130337522       
0.00023789371       
1.7175425e-05       
0.00147283912       
0.000325197725      
5.1834235e-05       
0.00168784101       
0.00042442614       
5.010118e-05        
0.00194828288       
0.00059017921       
0.00011492995       
0.00277815055       
0.00080885105       
0.0002228297        
0.0029229333        
0.00110798515       
0.0004016046        
0.00306577635       
0.0014452314        
0.000680522535      
0.0026097829        
0.00175275334       
0.001089996355      
0.0017917447        
0.00189972139       
0.001471622765      
0.0007778539        
0.001856006265      
0.00164094189       
0.0034907509        
0.001581795235      
0.00171147298       
0.002840967325      
0.001743663195      
0.001661535         
0.002151607695      
0.00147018009       
0.00159642716       
0.001643611655      
0.00130830333       
0.00148330798       
0.00152954921       
0.00115855305       
0.00135847386       
0.00137103024       
0.0010279839        
0.001253042765      
0.00094176458       
0.000860615605      
0.001058843975      
0.000833400075      
0.00073972412       
0.00091572408       
0.000706544695      
0.000653659025      
0.00084810944       
0.00045543822       
0.00056161167       
0.000734949705      
0.000411553165      
0.00047513422       
0.00062676093       
0.00034053344       
0.000400944415      
0.00053575282       
0.0002818621        
0.00033884716       
0.0004547294        
0.0002345169        
0.000286113655      
0.00038745076       
0.000195122105      
0.00024062621       
0.00032732706       
0.00016422226       
0.000204518915      
0.000282196225      
0.100862988         
0.0986941287        
0.079892121         
0.040045642355      
0.08626905065       
0.08709460028       
0.000280107815      
2.5725235e-05       
1.2760025e-05       
0.00023373028       
3.120234e-05        
1.5976153e-05       
0.00032998524       
3.6315145e-05       
1.7919692e-05       
0.00028847983       
4.9581775e-05       
2.34505052e-05      
0.00035073082       
4.1503665e-05       
1.9402137e-05       
0.000392134975      
3.703421e-05        
1.0841836e-05       
0.00050588473       
6.890153e-05        
2.440249e-05        
0.00060202304       
8.052761e-05        
9.46059999999e-07   
0.00068779125       
0.00011123826       
1.055354e-05        
0.0007158640155     
0.0001330275135     
3.051445e-05        
0.000813247568      
0.000165805836      
2.9120595e-05       
0.000998364065      
0.000225839357      
2.2155925e-05       
0.001104669085      
0.00029598562       
4.522142e-05        
0.00130939453       
0.000391317865      
7.60526e-05         
0.00152675591       
0.00053126873       
0.00012923172       
0.002593166265      
0.00073039997       
0.00024451765       
0.00214798455       
0.0010010501        
0.0004293386        
0.00257787715       
0.0013854414        
0.00074318985       
0.0022356069        
0.0017872777        
0.00120434018       
0.00145864435       
0.00207776768       
0.001751651525      
0.00050239915       
0.00218175216       
0.00213384681       
0.00551265135       
0.00175076025       
0.00223914419       
0.0042975335        
0.002429841825      
0.002221552515      
0.00187595175       
0.001657500875      
0.002121977355      
0.00165393989       
0.001626724665      
0.00199413621       
0.00203790434       
0.001438461745      
0.0018202063        
0.00175288428       
0.00126219465       
0.001642050045      
0.00059459556       
0.001103280105      
0.00146683834       
0.00112310697       
0.000941448485      
0.001262891945      
0.00081397402       
0.000806198645      
0.00110017143       
0.0001247282        
0.00069542665       
0.00096475696       
0.00065155212       
0.000595546875      
0.000831003945      
0.000371330545      
0.000502932205      
0.0007065041        
0.00030735258       
0.00042454435       
0.00059832718       
0.00025756548       
0.000357381905      
0.000506958515      
0.000216599725      
0.00030127791       
0.000428926755      
0.00018343161       
0.000253068125      
0.000361283965      
0.00015450135       
0.00021445158       
0.00030755863       
0.0260088845        
0.101168184         
0.0996181923        
0.0471246849        
0.04381665715       
0.0435780438        
0.0433974723        
0.0430867947        
0.0428118074        
0.0423800916        
0.04194268485       
0.041288409         
0.032903834         
0.0001465149        
4.78713e-05         
5.05266e-05         
5.399545e-05        
5.780985e-05        
6.25773e-05         
6.79459e-05         
7.496565e-05        
8.2778e-05          
8.1948e-05          
0.00017082075       
5.60814e-05         
5.96467e-05         
6.32706e-05         
6.798485e-05        
7.33027e-05         
8.002925e-05        
8.7328e-05          
9.75605e-05         
9.7044e-05          
0.0002015198        
6.66709e-05         
7.092375e-05        
7.588655e-05        
8.14454e-05         
8.799075e-05        
9.617355e-05        
0.0001062663        
0.0001176978        
0.0001157145        
0.0002377096        
7.90226e-05         
8.387735e-05        
8.9411e-05          
9.58821e-05         
0.00010381965       
0.0001127179        
0.0001239068        
0.0001387573        
0.000134718         
0.0002819197        
9.77332e-05         
0.0001055906        
0.00011459955       
0.000125159         
0.0001374282        
0.0001524356        
0.0001709204        
0.0001930145        
0.000191248         
0.00033154665       
0.00011608695       
0.0001260006        
0.00013744335       
0.0001508838        
0.00016661085       
0.00018565375       
0.00020836635       
0.0002376951        
0.000242561         
0.0003853906        
0.0001325252        
0.0001422162        
0.00015332475       
0.00016626385       
0.00018152315       
0.0001997733        
0.00022207475       
0.0002492851        
0.00024934195       
0.00045071055       
0.0001553556        
0.00016591755       
0.00017819575       
0.00019216675       
0.0002089059        
0.00022867255       
0.0002529631        
0.00028344105       
0.0002794051        
0.0005381105        
0.0001964669        
0.0002078833        
0.0002208422        
0.000236022         
0.000253913         
0.0002752702        
0.00030100285       
0.0003328078        
0.0003266889        
0.0006146336        
0.0002250757        
0.0002385467        
0.00025404615       
0.0002722324        
0.00029343435       
0.0003187364        
0.0003499167        
0.00038851935       
0.0003795675        
0.0006822308        
0.000247845         
0.0002661861        
0.0002871662        
0.00031174495       
0.00034068655       
0.0003752415        
0.000417059         
0.0004688544        
0.0004621562        
0.00077702265       
0.00028696465       
0.0003065202        
0.00032904265       
0.00035508505       
0.0003854664        
0.00042157645       
0.0004653535        
0.0005204356        
0.0005186199        
0.00085848375       
0.0003166912        
0.00033687055       
0.0003598397        
0.00038670655       
0.0004181626        
0.0004556208        
0.00050091515       
0.0005573901        
0.0005466665        
0.0009269985        
0.00034694445       
0.00036941305       
0.00039529725       
0.0004253953        
0.00046076635       
0.00050235875       
0.0005528863        
0.00061606245       
0.0006051004        
0.0009623326        
0.0003624531        
0.00038541695       
0.00041208045       
0.0004424902        
0.0004782662        
0.0005205519        
0.00057171575       
0.0006351609        
0.0006293885        
0.00093956365       
0.00035344785       
0.00037557325       
0.0004010845        
0.0004303954        
0.00046441695       
0.00050534815       
0.0005535656        
0.0006141279        
0.00060866275       
0.0008333166        
0.0003096592        
0.0003287842        
0.000350874         
0.0003758049        
0.00040533805       
0.0004401934        
0.0004814548        
0.00053119705       
0.000533428         
0.000607507415      
0.000203683505      
0.00021652247       
0.0002315708        
0.0002484903        
0.00026839695       
0.00029147335       
0.0003184675        
0.000346326         
0.00035771455       
0.00023355572       
4.5906e-06          
9.6434665e-06       
1.5150825e-05       
2.184009e-05        
2.8141305e-05       
3.57598e-05         
4.42999e-05         
4.38614e-05         
4.83646e-05         
0.000151071335      
0.0002195942        
0.0002283273184     
0.0002387570381     
0.000249983025      
0.000263811385      
0.000280546365      
0.000301426875      
0.00033652782       
0.00034886985       
0.0004158894        
0.00038084995       
0.00040371561       
0.000429861685      
0.00046114274       
0.0004976775        
0.000540772         
0.00059458384       
0.0006638698        
0.0007161099        
0.00054195015       
0.0004647523        
0.0004941547        
0.0005279869        
0.0005664899        
0.00061374205       
0.00066907315       
0.0007379342        
0.00082348425       
0.0009173768        
0.0005695926        
0.0004953995        
0.0005282078        
0.0005662846        
0.00061069925       
0.0006632689        
0.0007271678        
0.00080550975       
0.0009033177        
0.0010179033        
0.0005431935        
0.0004870327        
0.0005169258        
0.00055206585       
0.0005930362        
0.0006418256        
0.0007014303        
0.00077452625       
0.0008671366        
0.0009814342        
0.00047392745       
0.00044288415       
0.0004730637        
0.0005079172        
0.0005490939        
0.00059848195       
0.0006584565        
0.000732892         
0.0008269419        
0.00093483525       
0.00042307305       
0.0004114655        
0.0004390643        
0.00047100065       
0.0005090494        
0.0005541855        
0.00060939495       
0.0006782974        
0.00076571675       
0.00087236355       
0.00036306147       
0.00036431019       
0.00038443215       
0.00040812875       
0.00043606255       
0.0004695383        
0.00050980715       
0.0005605244        
0.00062508145       
0.0006999629        
0.000281305755      
0.000292110665      
0.0003140693        
0.0003397899        
0.00037000325       
0.00040683185       
0.00045201855       
0.0005086025        
0.00058057          
0.0006579311        
0.000240448895      
0.00026067865       
0.00028360945       
0.0003101765        
0.00034152745       
0.000379057         
0.0004247789        
0.0004818268        
0.00055547915       
0.0006402303        
0.0002387875        
0.00025755364       
0.0002725471        
0.0002899197        
0.00031061935       
0.0003352912        
0.00036540795       
0.0004031729        
0.0004517365        
0.00051032185       
0.0001962237        
0.000214248625      
0.00022418823       
0.0002359331        
0.0002501106        
0.00026746865       
0.00028873325       
0.0003159333        
0.00035159955       
0.0003899031        
0.000130188295      
0.00014779442       
0.000158486875      
0.000171106         
0.0001860511        
0.00020389905       
0.0002258301        
0.0002537426        
0.00028962765       
0.00032920225       
0.000107988766      
0.00012485777       
0.000133875775      
0.00014457768       
0.00015716765       
0.0001725346        
0.00019124745       
0.0002146515        
0.0002452919        
0.00027903745       
8.9203653e-05       
0.000105110355      
0.000112809         
0.00012172383       
0.00013247845       
0.00014532365       
0.000161285         
0.0001814003        
0.0002073032        
0.0002359116        
7.396137025e-05     
8.831486e-05        
9.491559e-05        
0.00010252868       
0.00011157255       
0.00012244815       
0.0001359565        
0.0001526997        
0.00017478755       
0.0001989171        
6.1451925e-05       
7.422904e-05        
7.9590045e-05       
8.617617e-05        
9.36521e-05         
0.0001030239        
0.00011436005       
0.0001286186        
0.0001473603        
0.00016765425       
5.0973913e-05       
6.23094e-05         
6.7018545e-05       
7.235441e-05        
7.901955e-05        
8.666405e-05        
9.649645e-05        
0.0001088007        
0.0001245975        
0.000141103         
4.3621736e-05       
5.3440945e-05       
5.739765e-05        
6.21357e-05         
6.758514e-05        
7.43802e-05         
8.247655e-05        
9.29478e-05         
0.0001063654        
0.00012106735       
0.0939857092        
0.093741882525      
0.093449381785      
0.09310685448       
0.09269187992       
0.09223577705       
0.0915967584        
0.09087745765       
0.08994522965       
0.08892065145       
0.02697013145       
0.0436070531        
0.0434446294        
0.04321160695       
0.0429923463        
0.0426894665        
0.0423793006        
0.0420028706        
0.04153608845       
0.0406758255        
0.00014719215       
4.94931e-05         
5.25732e-05         
5.593065e-05        
6.033545e-05        
6.52975e-05         
7.159605e-05        
7.894625e-05        
8.876545e-05        
8.7096e-05          
0.0001706786        
5.79287e-05         
6.158065e-05        
6.60506e-05         
7.07177e-05         
7.685575e-05        
8.394155e-05        
9.3128e-05          
0.00010358865       
0.0001024405        
0.00020190935       
6.86908e-05         
7.310825e-05        
7.83876e-05         
8.46627e-05         
9.17997e-05         
0.0001004851        
0.00011150945       
0.0001255902        
0.000123251         
0.0002371918        
8.14118e-05         
8.66303e-05         
9.266075e-05        
9.97423e-05         
0.00010816715       
0.0001186928        
0.0001308419        
0.00014668115       
0.000145307         
0.0002798705        
9.76468e-05         
0.0001056605        
0.0001147863        
0.000125491         
0.0001381266        
0.0001531202        
0.00017188615       
0.0001955934        
0.000198728         
0.0003265616        
0.00011449485       
0.0001243758        
0.00013573065       
0.00014902305       
0.00016478085       
0.00018368025       
0.00020683905       
0.0002353181        
0.000242398         
0.0003817303        
0.0001325864        
0.0001426775        
0.00015415215       
0.00016755255       
0.00018336815       
0.0002024889        
0.0002257651        
0.0002552218        
0.00025622065       
0.00044499645       
0.00015601435       
0.00016692885       
0.00017958565       
0.00019455525       
0.00021190755       
0.0002331299        
0.00025880915       
0.00029152935       
0.00029153865       
0.0005254312        
0.0001968202        
0.0002089499        
0.00022277365       
0.00023902          
0.0002583206        
0.00028147655       
0.0003098991        
0.0003454601        
0.00034105245       
0.0005936084        
0.00022405375       
0.0002380138        
0.00025428365       
0.0002734362        
0.0002961654        
0.0003231767        
0.0003565176        
0.0003990378        
0.0003949061        
0.0006589103        
0.0002389281        
0.0002570061        
0.00027772725       
0.0003018776        
0.00033056365       
0.00036502475       
0.00040723775       
0.0004599779        
0.0004650153        
0.0007368237        
0.00027310905       
0.0002925316        
0.00031471675       
0.00034081415       
0.0003713544        
0.0004079144        
0.00045248645       
0.0005088064        
0.0005090625        
0.0008004169        
0.0002999639        
0.00031997555       
0.0003431136        
0.0003701467        
0.0004022164        
0.00044063585       
0.0004875747        
0.00054741415       
0.0005446283        
0.0008351564        
0.0003150677        
0.00033662865       
0.00036157375       
0.00039061685       
0.0004251115        
0.00046602915       
0.00051647395       
0.00057980325       
0.0005815914        
0.0008267529        
0.00031276055       
0.00033404005       
0.000359            
0.00038788545       
0.0004217885        
0.00046284705       
0.0005126514        
0.000575681         
0.0005753195        
0.000749537         
0.000281203         
0.00030097395       
0.00032389325       
0.00035025          
0.00038164815       
0.0004196026        
0.0004654752        
0.00052246005       
0.000524623         
0.0005725893        
0.00019676765       
0.0002118253        
0.000229655         
0.0002500896        
0.00027475995       
0.00030434045       
0.0003402796        
0.000381405         
0.00038547785       
0.000290765675      
3.7382765e-05       
4.5470135e-05       
5.490807e-05        
6.64952e-05         
7.937505e-05        
9.537685e-05        
0.00011523485       
0.0001304463        
0.0001291266        
8.771894e-05        
0.00019249424       
0.0001946033181     
0.0001975004948     
0.000199837285      
0.000202861655      
0.000206145035      
0.0002096515        
0.00022436804       
0.0002442814        
0.00041391836       
0.000399487235      
0.00041849444       
0.0004395769021     
0.00046459134       
0.000493034695      
0.000525557425      
0.000565209285      
0.00061830792       
0.00068665745       
0.0005928291        
0.0005188529        
0.000551433225      
0.00058864904       
0.000630120535      
0.000680040265      
0.0007371394        
0.00080634535       
0.000890933395      
0.00100363395       
0.0006523743        
0.0005634585        
0.00059802415       
0.0006376838        
0.0006832668        
0.0007368325        
0.00080082455       
0.0008775466        
0.00097133125       
0.00109406385       
0.0006396717        
0.000564866         
0.0006006697        
0.0006423601        
0.00069062665       
0.00074718595       
0.00081522635       
0.000897147         
0.0009987682        
0.0011228532        
0.00058844525       
0.00053250145       
0.00056460325       
0.00060113655       
0.0006438296        
0.00069461845       
0.0007553244        
0.00082980775       
0.0009222513        
0.0010357366        
0.00050482799       
0.0004721495        
0.00050292855       
0.0005385297        
0.000580602         
0.00063010305       
0.00068991325       
0.000763859         
0.000855013         
0.0009619035        
0.00044697207       
0.000430205685      
0.0004579374        
0.00049028315       
0.0005279792        
0.0005729815        
0.000626967         
0.0006939327        
0.0007774036        
0.00087475345       
0.00038028537       
0.000376903815      
0.0003975479        
0.00042111845       
0.00044883625       
0.0004820596        
0.00052219135       
0.0005714944        
0.000633685         
0.0007030891        
0.000294863905      
0.000297699695      
0.00031904237       
0.0003441165        
0.0003737966        
0.00040902345       
0.00045215555       
0.00050574735       
0.0005731801        
0.00064748655       
0.00025049736       
0.00026140451       
0.00028364302       
0.0003093206        
0.00033937315       
0.0003751022        
0.000418061         
0.0004711889        
0.0005381441        
0.00061379485       
0.00025155567       
0.000260165         
0.00027486686       
0.00029185905       
0.0003118974        
0.0003358823        
0.00036474755       
0.00040074285       
0.0004462962        