# vtk DataFile Version 3.0
PyPan mesh file. Generated by PyPan, USU AeroLab (c) 2020.
ASCII
DATASET POLYDATA
POINTS 7274 float
4987.66259766       3030.0              770.000488281       
4985.47753906       3028.64453125       690.455444336       
4740.33984375       3030.0              770.000488281       
4742.52490234       3028.64453125       690.455444336       
4744.75             3026.4921875        647.870056152       
4983.25292969       3026.4921875        647.870056152       
4749.52246094       3019.77172852       576.40838623        
4978.47998047       3019.77172852       576.40838623        
4752.64208984       3013.41503906       534.636474609       
4975.36083984       3013.41503906       534.636474609       
4756.92089844       3000.42407227       477.637298584       
4971.08154297       3000.42407227       477.637298584       
4758.31445312       2994.42260742       458.333984375       
4969.68798828       2994.42260742       458.333984375       
4760.20849609       2983.82397461       430.904388428       
4967.79394531       2983.82397461       430.904388428       
4761.21875          2976.31787109       415.380493164       
4966.78369141       2976.31787109       415.380493164       
4965.87158203       2967.72607422       400.529846191       
4762.13085938       2967.72607422       400.529846191       
4965.28417969       2960.82666016       390.478149414       
4762.71875          2960.82666016       390.478149414       
4964.80322266       2954.04101562       381.971374512       
4763.19921875       2954.04101562       381.971374512       
4763.55908203       2947.98999023       375.391967773       
4964.44335938       2947.98999023       375.391967773       
4964.37646484       2946.75097656       374.152191162       
4763.62597656       2946.75097656       374.152191162       
4964.08496094       2940.74853516       368.621826172       
4763.91748047       2940.74853516       368.621826172       
4764.14257812       2935.34594727       364.269256592       
4963.85986328       2935.34594727       364.269256592       
4963.55957031       2926.69116211       358.414642334       
4764.77880859       2913.58935547       351.84765625        
4764.57568359       2922.11083984       355.823516846       
4963.43603516       2922.45263672       356.00567627        
4764.56640625       2922.45263672       356.00567627        
4764.44335938       2926.69116211       358.414642334       
4963.42675781       2922.11083984       355.823516846       
4963.22363281       2913.58935547       351.84765625        
4764.87304688       2908.6965332        350.02041626        
4963.12988281       2908.6965332        350.02041626        
4764.88720703       2907.87451172       349.744812012       
4765.02099609       2898.70678711       347.235687256       
4962.85107422       2877.5              345.000274658       
4765.15136719       2877.5              345.000274658       
4962.86425781       2883.79541016       345.187194824       
4765.13867188       2883.79541016       345.187194824       
4962.92431641       2893.24707031       346.209533691       
4765.078125         2893.24707031       346.209533691       
4962.98144531       2898.70678711       347.235687256       
4963.11523438       2907.87451172       349.744812012       
4773.29541016       2697.5              344.999328613       
4954.70751953       2697.5              344.999328613       
4954.67382812       2690.22216797       345.234863281       
4773.32861328       2690.22216797       345.234863281       
4954.56152344       2682.10620117       346.080780029       
4773.44091797       2682.10620117       346.080780029       
4954.54052734       2681.02514648       346.242919922       
4773.46191406       2681.02514648       346.242919922       
4954.36816406       2673.92602539       347.613342285       
4773.63427734       2673.92602539       347.613342285       
4954.11572266       2666.32104492       349.705688477       
4773.88720703       2666.32104492       349.705688477       
4953.77490234       2658.43481445       352.622039795       
4774.22753906       2658.43481445       352.622039795       
4953.47265625       2652.73974609       355.241760254       
4774.53027344       2652.73974609       355.241760254       
4953.39990234       2651.50683594       355.870239258       
4774.60253906       2651.50683594       355.870239258       
4952.97412109       2644.97851562       359.582885742       
4775.02832031       2644.97851562       359.582885742       
4952.56494141       2639.5925293        363.164916992       
4775.4375           2639.5925293        363.164916992       
4951.85791016       2631.68847656       369.365692139       
4776.14453125       2631.68847656       369.365692139       
4951.44042969       2627.68066406       372.978210449       
4776.56201172       2627.68066406       372.978210449       
4951.34814453       2626.85083008       373.769775391       
4776.65429688       2626.85083008       373.769775391       
4950.24560547       2618.11181641       383.06427002        
4777.75683594       2618.11181641       383.06427002        
4950.1171875        2617.21020508       384.131439209       
4949.34667969       2612.20166016       390.45904541        
4778.65576172       2612.20166016       390.45904541        
4947.72314453       2603.39086914       403.447143555       
4780.27978516       2603.39086914       403.447143555       
4946.94628906       2599.82763672       409.471496582       
4781.05615234       2599.82763672       409.471496582       
4946.140625         2596.4753418        415.596954346       
4781.86181641       2596.4753418        415.596954346       
4943.73730469       2588.05908203       433.268554688       
4905.36181641       2545.0              770.000488281       
4822.640625         2545.0              770.000488281       
4910.51953125       2546.77197266       670.49597168        
4817.48291016       2546.77197266       670.49597168        
4923.44189453       2555.00854492       568.439453125       
4804.56054688       2555.00854492       568.439453125       
4929.66845703       2561.35595703       527.243591309       
4798.33398438       2561.35595703       527.243591309       
4939.01318359       2576.06665039       466.081604004       
4790.90722656       2572.30541992       478.867523193       
4940.55175781       2579.47973633       455.626495361       
4788.98925781       2576.06665039       466.081604004       
4943.19677734       2586.42822266       437.138549805       
4787.45068359       2579.47973633       455.626495361       
4784.26513672       2588.05908203       433.268554688       
4911.15966797       3030.0              2829.33520508       
4870.10205078       3030.0              3431.75317383       
4924.08691406       3030.0              2782.03393555       
4801.12304688       3030.0              2192.44677734       
4803.91552734       3030.0              2782.03393555       
4816.84277344       3030.0              2829.33520508       
4857.90039062       3030.0              3431.75317383       
4926.87939453       3030.0              2192.44677734       
4864.00146484       3030.0              1020.00048828       
4735.96142578       3030.0              1159.8338623        
4836.4921875        3030.0              1300.44555664       
4734.85546875       3030.0              1267.42553711       
4816.84277344       3030.0              1589.33544922       
4747.19433594       3030.0              1861.04968262       
4765.79541016       3030.0              2224.92407227       
4962.20703125       3030.0              2224.92407227       
4980.80810547       3030.0              1861.04968262       
4911.15966797       3030.0              1589.33544922       
4993.14697266       3030.0              1267.42553711       
4891.51025391       3030.0              1300.44555664       
4992.04101562       3030.0              1159.8338623        
4984.82666016       2583.1003418        1864.99975586       
4991.296875         2590.62402344       1864.99499512       
4990.84814453       2545.23632812       1864.99975586       
4737.46777344       2511.41430664       1864.99975586       
4774.81005859       2558.90771484       1864.99304199       
4764.20996094       2515.92822266       1864.99975586       
4792.79394531       2551.20581055       1864.99694824       
4800.40478516       2520.31005859       1864.99975586       
4736.70556641       2590.62402344       1864.99499512       
4744.12402344       2582.10107422       1864.98925781       
4737.15429688       2545.23632812       1864.99975586       
4758.17578125       2569.53686523       1864.99121094       
4765.65771484       2564.27587891       1864.9921875        
4990.53466797       2511.41430664       1864.99975586       
4962.35644531       2564.25756836       1864.99975586       
4970.20898438       2569.80859375       1864.99975586       
4812.11962891       2546.47607422       1864.9987793        
4830.88330078       2545.0              1864.99975586       
4864.00146484       2523.2902832        1864.99975586       
4897.11914062       2545.0              1864.99975586       
4927.59765625       2520.31005859       1864.99975586       
4915.94726562       2546.46582031       1864.99975586       
4963.79248047       2515.92822266       1864.99975586       
4935.20410156       2551.19702148       1864.99975586       
4953.40478516       2559.00610352       1864.99975586       
5011.5625           2767.46484375       2420.61035156       
5013.84667969       2558.95532227       3029.99975586       
5015.99560547       2552.20703125       2773.02075195       
4999.33837891       2566.72363281       3416.36743164       
4988.984375         2767.46484375       2919.84741211       
4996.42041016       2567.49682617       3470.89672852       
4864.00146484       2552.87133789       5145.00048828       
4894.22265625       2559.68725586       4815.20654297       
[...]
CELL_DATA 15558
SCALARS panel_area float 1
LOOKUP_TABLE default
9838.07785944       
9664.24204181       
5179.71942962       
5084.85223859       
8559.50990137       
8216.93954867       
4837.04971363       
4705.24694069       
6510.16397377       
6260.00728841       
2164.60045899       
2136.4300998        
3107.82679241       
3052.1305671        
1789.73366942       
1772.31349066       
1763.4330688        
1747.78405956       
1241.9769583        
1234.81252516       
1102.1225845        
1096.8916373        
901.056584905       
897.839847923       
176.051930068       
175.934664535       
819.238156237       
816.858939765       
694.359166259       
692.797487803       
1043.42403041       
935.016988615       
38.5118582943       
484.771142659       
485.372226269       
1040.28366357       
38.4254937614       
933.024028519       
518.227159396       
517.736209983       
85.9436555183       
942.195113289       
622.574631083       
622.656126148       
939.867871916       
940.441101655       
549.548771081       
549.866107833       
940.795860166       
85.8039773881       
660.489058927       
660.245507977       
739.882314537       
738.965915919       
98.9956491078       
98.9726975268       
654.615971439       
653.369752962       
712.77490893        
710.7818359         
757.698238244       
754.834599627       
562.765284953       
560.869068013       
123.815111728       
123.714770436       
671.399665602       
668.20198412        
575.509570032       
572.862844737       
889.717952969       
882.615104018       
474.042402536       
471.789852269       
100.277169477       
100.17133487        
1114.34277729       
1100.27695348       
120.487858995       
696.007868307       
807.913944421       
1339.46357741       
1313.97904081       
585.988713906       
580.553001795       
579.186586401       
573.560787123       
1607.74935863       
4116.21874698       
4629.51605724       
4762.93313923       
6086.03261524       
2477.60583558       
2737.14137904       
4130.87791081       
3722.46014713       
804.197520413       
1020.53169206       
1482.20079855       
871.648963863       
321.705408378       
1909.47983942       
1560.70813199       
2922.76395822       
3744.82520825       
2922.76395822       
3744.82520825       
30915.3442383       
24651.0157402       
16030.7412198       
5485.89175737       
15005.3223989       
22348.8200179       
18867.2440951       
6729.46741101       
10459.7065754       
10459.7065754       
6729.46741101       
18867.2440951       
22348.8200179       
15005.3223989       
14705.9286449       
6810.67000329       
24650.920566        
145.146048802       
550.758859127       
427.289651488       
575.807885845       
166.441148991       
302.79181691        
359.303409207       
271.90684148        
317.567762338       
484.804788053       
153.761588871       
316.759964406       
280.542133589       
254.131256593       
739.682736397       
718.980662405       
739.676708579       
254.770665169       
447.826548696       
407.211422265       
407.059644878       
578.076768637       
310.505933046       
28863.8463232       
42950.1962897       
50824.1359355       
5761.09215073       
77519.1288516       
174007.24171        
25506.9251809       
20766.2408178       
173183.036288       
123338.776298       
48348.8918528       
89578.0768488       
62130.3680327       
2721.86905836       
45185.8858551       
23961.6417347       
24737.2322203       
52332.9459076       
16308.5578298       
767.656624517       
673.271741095       
534.067048079       
436.90169697        
374.584240152       
314.256099184       
313.274380327       
371.549530188       
1719.23850857       
1646.15824855       
823.437843302       
27618.2322682       
1972.85976109       
188953.879277       
39424.1470019       
4197.6730264        
60813.1055002       
120459.387369       
17793.2545465       
42476.2211979       
434.037235055       
260.136299908       
21610.681415        
29603.8026395       
13045.5676162       
1621.01415567       
10515.782916        
461.980653205       
356.496133649       
339.216102369       
316.221336833       
324.553050939       
444.450393661       
570.283410781       
828.875233949       
36264.0980582       
45289.8220015       
16327.0898442       
17792.9736333       
329.794232307       
217.628303213       
186.69773488        
635.035003308       
326.341787633       
328.51805794        
329.57819527        
318.655114754       
326.379095402       
328.467139913       
323.024550547       
4.46839435771       
313.37375801        
3.50818316033       
468.612275223       
17.8738957515       
297.460640736       
961.752856046       
350.798395757       
2.412943112         
340.359147237       
261.181474479       
349.085298114       
265.808128481       
355.910973301       
361.494077944       
552.28488324        
405.371181038       
3.29919369993       
2.1517974906        
172.351703236       
259.371969123       
175.255648255       
263.969398375       
177.656074388       
1457.59947987       
360.212105131       
729.085778554       
362.506659419       
734.96570598        
363.950981828       
737.90407285        
363.691294466       
737.885732401       
362.49552207        
734.903184301       
360.073672173       
745.960488756       
220.489875361       
695.464405486       
348.999361626       
708.980476778       
720.421977223       
351.516051231       
318.638356508       
547.202914084       
358.448078304       
164.928036833       
296.262784717       
728.949360215       
356.431579764       
323.064396471       
495.929980322       
684.659915577       
1168.26239189       
653.859111244       
670.574286195       
1200.11734587       
670.873992128       
658.949946332       
375.328687635       
195.78456563        
85.7890762946       
204.696349829       
526.205844168       
654.236034103       
212.243286237       
196.048812955       
217.09300017        
192.228274832       
211.214282544       
190.741678463       
206.119125078       
635.331810353       
955.452999962       
396.998793383       
433.479353293       
365.137037491       
446.369897482       
374.644367326       
457.869057369       
383.150544002       
467.558777598       
390.233597124       
474.99910323        
395.566034497       
480.118706681       
399.45437192        
482.840085189       
401.27885332        
482.863657248       
401.399517139       
480.389905628       
399.646272781       
475.425717572       
395.96138713        
564.322505145       
205.298330585       
201.625420075       
176.695996501       
196.624250421       
181.586165619       
202.447429429       
207.758175476       
197.262529349       
222.311064106       
200.755998204       
222.146049048       
684.838118136       
695.711157338       
1216.08339355       
703.041576113       
676.897760982       
706.748682649       
556.838026521       
706.811439364       
1234.12196407       
702.896625651       
540.236566309       
695.500695148       
730.004849601       
790.029766077       
162.502688078       
182.374746225       
165.836387382       
187.417954698       
170.088613023       
480.756884391       
341.417547159       
431.512086575       
346.755416133       
439.336156631       
350.899314381       
445.278913917       
353.708327019       
449.446567458       
355.100349414       
451.450472775       
355.065090156       
451.353240631       
353.596641111       
449.343589809       
350.697191094       
445.022471772       
346.557451904       
439.079821051       
341.019335585       
431.165706882       
334.482834027       
421.649786928       
512.432093549       
273.410576557       
1605.5716063        
419.24881547        
132.833719197       
713.626320773       
914.167158459       
186.59022448        
111.690892545       
56.227192689        
40.821730406        
36.9163639839       
18.3303148826       
19.4930063911       
189.262916925       
233.210756208       
194.918028954       
253.802520066       
199.447793828       
290.822872998       
194.018252632       
159.39964817        
209.636247516       
256.515419684       
209.146349417       
255.7515828         
207.497328874       
253.545884704       
204.65935352        
250.015804394       
200.802398551       
301.553691157       
211.547039863       
132.186837649       
210.543491986       
178.82223265        
208.502361714       
193.701014788       
205.361282766       
121.687743763       
201.242343322       
286.832408572       
108.385172048       
78.2880049043       
229.780107401       
232.695044888       
190.432104056       
239.397226184       
37.4127701907       
38.1249711197       
37.5875636572       
18.5168026324       
37.2932950807       
37.7438381389       
37.3337992452       
37.2879788993       
18.6395518286       
18.7066460109       
71.276026649        
36.5758251228       
70.8908658543       
36.6936460917       
36.4122346082       
70.4171851415       
38.1074571959       
18.9770038259       
19.1675020943       
18.7887312213       
18.5914617494       
18.9364544805       
18.7094548647       
19.0392318996       
18.787334384        
19.0947967506       
18.3430633124       
37.0633787819       
37.268826018        
18.7629172558       
18.5807207634       
18.8952178454       
18.7826255464       
19.0434410468       
18.1163370495       
36.5201183844       
18.019917234        
18.5497696581       
18.3210432857       
18.700242911        
18.454385672        
18.8149450693       
18.6347983988       
18.5358304685       
18.8324172443       
18.713351844        
18.9877828699       
18.8486841512       
19.0828895204       
7.27793447342       
18.1065409292       
18.127497337        
10.7567628639       
18.0759930849       
6.01196760006       
10.9650918295       
6.41312987352       
18.066041303        
10.9328230019       
0.99723447359       
19.0930863875       
18.8117522481       
18.8790191193       
18.5409030806       
18.8256247945       
18.5936031906       
36.7973550984       
18.52704907         
18.2668692226       
18.1561760754       
18.3542381903       
18.4241148731       
18.5985804871       
17.6395875192       
18.079111774        
18.0914577629       
17.9971496415       
18.1040121079       
17.9727960883       
17.8570838362       
17.6971872672       
8.41862526333       
35.3643730443       
17.6439678948       
17.5946655258       
17.4018434936       
17.3355026703       
17.1321499277       
18.5137320878       
3.97570901942       
20.3076528057       
17.4234445505       
17.4032309247       
17.1766418316       
17.1416759037       
16.9045373419       
0.44304513303       
5.57873968889       
17.7649925585       
11.8558319617       
7.87815496042       
36.3701659466       
36.001531829        
69.4770499309       
35.8008299073       
35.3711836512       
68.0928934896       
69.0146688143       
71.4001948145       
69.212085967        
71.2076906999       
68.9626712901       
70.5681120893       
68.2562413101       
69.5132349475       
67.1511449845       
68.0741552701       
65.6630296524       
66.3091317118       
63.8751432413       
64.5547654446       
60.9100841147       
17.5690113115       
34.5340224449       
5.22074434216       
12.0678767767       
17.1219091219       
13.3455706584       
16.8930758309       
18.4751106747       
5.39021307101       
66.6657273145       
34.0844299713       
66.3397639669       
34.5305491406       
35.0336776115       
17.647255287        
19.7153387979       
14.1559806704       
34.255568398        
11.3916698442       
19.479018439        
109.473042452       
41.1934265998       
45.7973501407       
41.9834192587       
46.1802182761       
18.9078149363       
38.2246243308       
37.1988502653       
37.5328276794       
36.2998912197       
36.4336297272       
35.0212141768       
34.9556350339       
33.3864979186       
33.1447104779       
31.4547022755       
31.0579204241       
29.293709371        
18.3902343891       
37.020350595        
35.8169150105       
35.8056403857       
34.4013045126       
34.2019918665       
32.6303118331       
32.2476623715       
30.5523719201       
30.0263744547       
28.239532868        
27.8013307118       
52.2927395474       
36.6663210656       
27.6850091382       
28.2511440773       
30.1025473517       
30.5573727554       
32.3249823392       
32.6281621163       
34.2663069629       
34.3966994651       
35.8644875081       
35.8076447848       
37.0751133268       
18.4167122819       
18.7876399047       
36.2857779834       
36.1456624069       
35.2215501667       
34.8816093458       
33.8253633542       
33.3020780376       
32.1486402133       
31.8056696556       
60.5091363548       
68.8549516153       
32.1736023668       
32.9277566938       
33.7447547797       
34.3326423118       
35.0649837787       
35.4704136899       
18.3742228539       
36.7363327524       
35.7255497211       
35.651929797        
34.4547429397       
34.1876709053       
32.8412636114       
32.3943093153       
30.9281434388       
30.3304564496       
28.7966085539       
28.0704482561       
59.5106284952       
166.963967567       
469.038127574       
74.81571647         
284.145162886       
90.3635698934       
127.762118203       
78.9377021056       
70.2448155189       
28.3969640891       
108.306234904       
119.644914033       
107.534645943       
225.726703989       
182.944376725       
188.073347636       
127.071576329       
164.891633985       
207.355329926       
203.926407351       
245.737373814       
118.966784878       
128.259744589       
118.479004456       
125.1681966         
99.5767792075       
101.874060519       
39.9852225716       
112.125892317       
41.2044140378       
137.25545047        
124.160075189       
134.915677888       
18.3876061681       
18.5310009358       
37.1943026039       
18.2746401051       
36.801695796        
73.638904795        
72.0516600965       
72.2191309542       
72.2130972295       
172.240777226       
142.656201884       
130.589939878       
139.244595321       
127.151236215       
135.11063372        
295.722544017       
203.639966361       
199.880821778       
239.942470462       
115.530064499       
124.148196904       
113.517190145       
119.64215407        
92.2961119924       
53.0937008344       
21.9091142797       
18.5818019196       
18.4466734553       
18.7755793833       
18.6123378256       
18.9259530387       
18.7333875227       
19.026889359        
18.8096092463       
19.0811396072       
18.837427104        
19.0821667081       
18.8073842632       
19.0328556251       
18.7298220293       
18.8760755425       
18.9433033467       
18.5703702469       
18.7797903687       
36.9056895221       
36.9983653508       
37.0561617954       
36.3028647177       
36.0967206673       
72.5187463144       
72.4952913072       
68.8748830677       
70.4541725855       
66.7001540756       
67.9408315922       
64.1093767624       
65.0522947322       
61.1913231612       
64.372999212        
191.019573683       
190.629301088       
196.348892891       
196.021166581       
245.243379268       
135.862153251       
209.833672775       
206.972272246       
250.395053692       
121.866487938       
131.880647502       
123.064163527       
130.355338327       
59.91241672         
163.488943607       
56.4528548646       
46.0906763952       
50.7945557326       
46.9225674597       
51.199350247        
122.145429229       
111.075403412       
127.849541163       
116.527741518       
131.457677845       
119.780764459       
134.540767051       
122.531503777       
136.9523841         
124.659577996       
138.650702299       
126.076617044       
139.534619616       
126.756661634       
139.607916346       
126.645359439       
211.157575116       
208.890708645       
255.88283303        
125.779597324       
138.840009484       
68.362936293        
71.144801656        
70.79816111         
72.814550154        
73.001252591        
36.2509008739       
37.5066547545       
36.304814463        
37.531223393        
36.2818866243       
37.4805935245       
36.1886826509       
37.3468219277       
36.0190629436       
37.1551485996       
35.779484376        
36.8900891718       
35.4926379621       
36.5665458601       
39.3433737149       
18.0888388406       
17.8311270369       
17.7607595209       
35.7143802797       
36.0254650417       
18.0869395128       
17.9421332412       
18.1209516072       
18.2154253881       
18.3678829065       
18.2389627001       
18.3551086124       
18.3258246589       
18.3943787828       
485.136281737       
419.527768649       
501.424422826       
433.510503251       
516.308871257       
446.371070341       
529.436118332       
457.669831603       
540.331204655       
467.127173952       
548.868267231       
474.464139064       
554.679719787       
479.46908862        
557.686221281       
482.037596048       
557.640238955       
482.054741964       
554.68640673        
479.450593069       
548.864231846       
474.489279231       
540.339273645       
467.079033958       
529.421720802       
457.690150518       
516.302746143       
221.757190689       
224.756558509       
485.131878572       
208.00687093        
211.636989293       
501.473551108       
215.124526676       
218.549308113       
19.6249381729       
45.4957542552       
47.1559367522       
247.824313833       
260.476705977       
98.7249792257       
111.043725368       
155.104253999       
202.286209584       
120.730958099       
122.057697696       
159.582856521       
222.064900987       
200.489902149       
193.215405303       
173.093473018       
79.0662259946       
17.9935866771       
21.5432015824       
67.807270889        
35.8414706484       
71.4560583737       
8.05080753046       
12.7358839008       
8.00057022784       
36.6344744043       
8.55499239372       
12.3583802134       
124.678244527       
49.9070919669       
45.7836490732       
47.1861737872       
44.2640607581       
55.2314950733       
106.20462849        
43.7846992723       
111.750957744       
42.9882756469       
95.9859539704       
121.084752714       
145.768998269       
173.547650978       
183.03396164        
110.456841541       
235.110499789       
210.269184182       
256.835578415       
225.996650772       
252.481918599       
221.380504068       
246.638737038       
215.43847814        
239.448928738       
33.8511639241       
30.1372892172       
33.7848724524       
77.9140938571       
68.6642288916       
31.2065731731       
29.8508518559       
27.3679093192       
31.3375539152       
57.3284564741       
231.177088293       
208.403974253       
202.20498574        
181.243007634       
83.9511540809       
82.7500621627       
72.0907854064       
36.5976442817       
34.4396399654       
36.5809249559       
19.5224935305       
18.9171692251       
35.8886394751       
34.474190889        
33.6392133801       
31.5189090097       
39.0790033789       
37.0881865425       
39.1863118953       
37.2402033189       
39.6670688338       
37.9556900398       
41.3330497649       
39.9532204033       
42.8024251372       
106.668132815       
101.908529418       
95.7486349207       
90.0864671643       
41.7878751242       
38.6653357034       
73.0552598974       
32.280237191        
23.2492273741       
56.123140081        
51.8891817915       
53.7955120312       
50.7542784491       
61.3403388613       
60.3709129621       
72.7349780949       
73.8908748056       
164.292434753       
183.567453673       
191.952582158       
212.346911606       
259.514693846       
229.112753621       
114.679455556       
106.692368103       
106.459417441       
98.771272483        
48.3523535866       
48.356408157        
96.0531084387       
43.6488276048       