# vtk DataFile Version 3.0
PyPan mesh file. Generated by PyPan, USU AeroLab (c) 2020.
ASCII
DATASET POLYDATA
POINTS 8625 float
0.556812942028      0.0                 1.56013834476       
0.562430083752      0.0                 1.54415118694       
0.574224948883      0.0                 1.57033932209       
0.574818372726      -0.0140135027468    1.56020462513       
0.574818372726      0.0140135027468     1.56020462513       
0.575317382812      -0.0140135027468    1.55084586143       
0.575317382812      0.0140135027468     1.55084586143       
0.575735449791      -0.00871875137091   1.54357171059       
0.575735449791      0.00871875137091    1.54357171059       
0.58490729332       0.0                 1.53844642639       
0.592230558395      0.0                 1.58060085773       
0.592405319214      -0.0130781270564    1.57631480694       
0.592405319214      0.0130781270564     1.57631480694       
0.592822134495      -0.0210202541202    1.56541490555       
0.592822134495      0.0210202541202     1.56541490555       
0.59331959486       -0.0210202541202    1.55139040947       
0.59331959486       0.0210202541202     1.55139040947       
0.593736410141      -0.0130781270564    1.54049050808       
0.593736410141      0.0130781270564     1.54049050808       
0.607430815697      0.0                 1.53288424015       
0.610824048519      0.0                 1.59092092514       
0.610940217972      -0.0174375027418    1.58521270752       
0.610940217972      0.0174375027418     1.58521270752       
0.611217260361      -0.0280270054936    1.57069516182       
0.611217260361      0.0280270054936     1.57069516182       
0.611547887325      -0.0280270054936    1.5520144701        
0.611547887325      0.0280270054936     1.5520144701        
0.61182487011       -0.0174375027418    1.5374969244        
0.61182487011       0.0174375027418     1.5374969244        
0.629999995232      -0.0369171276689    1.56438028812       
0.629999995232      -0.0364335738122    1.55839538574       
0.629999995232      -0.0364335738122    1.5703650713        
0.629999995232      -0.0350337550044    1.55271685123       
0.629999995232      -0.0350337550044    1.57604372501       
0.629999995232      -0.0327939242125    1.54742074013       
0.629999995232      -0.0327939242125    1.58133971691       
0.629999995232      -0.0297903306782    1.54258334637       
0.629999995232      -0.0297903306782    1.58617711067       
0.629999995232      -0.0260992310941    1.5382809639        
0.629999995232      -0.0260992310941    1.59047949314       
0.629999995232      -0.0217968784273    1.53458988667       
0.629999995232      -0.0217968784273    1.59417057037       
0.629999995232      -0.0169595256448    1.53158628941       
0.629999995232      -0.0169595256448    1.59717416763       
0.629999995232      -0.0116634257138    1.52934646606       
0.629999995232      -0.0116634257138    1.59941399097       
0.629999995232      -0.00598483299837   1.52794671059       
0.629999995232      -0.00598483299837   1.60081386566       
0.629999995232      0.0                 1.5274630785        
0.629999995232      0.0                 1.60129737854       
0.629999995232      0.00598483299837    1.52794671059       
0.629999995232      0.00598483299837    1.60081386566       
0.629999995232      0.0116634257138     1.52934646606       
0.629999995232      0.0116634257138     1.59941399097       
0.629999995232      0.0169595256448     1.53158628941       
0.629999995232      0.0169595256448     1.59717416763       
0.629999995232      0.0217968784273     1.53458988667       
0.629999995232      0.0217968784273     1.59417057037       
0.629999995232      0.0260992310941     1.5382809639        
0.629999995232      0.0260992310941     1.59047949314       
0.629999995232      0.0297903306782     1.54258334637       
0.629999995232      0.0297903306782     1.58617711067       
0.629999995232      0.0327939242125     1.54742074013       
0.629999995232      0.0327939242125     1.58133971691       
0.629999995232      0.0350337550044     1.55271685123       
0.629999995232      0.0350337550044     1.57604372501       
0.629999995232      0.0364335738122     1.55839538574       
0.629999995232      0.0364335738122     1.5703650713        
0.629999995232      0.0369171276689     1.56438028812       
0.771572828293      0.0                 1.67142474651       
0.7720079422        -0.0183345992118    1.67045783997       
0.7720079422        0.0183345992118     1.67045783997       
0.773572444916      -0.0356608256698    1.66704201698       
0.773572444916      0.0356608256698     1.66704201698       
0.775840938091      -0.0519321300089    1.66115760803       
0.775840938091      0.0519321300089     1.66115760803       
0.778500020504      -0.066743247211     1.65307033062       
0.778500020504      0.066743247211      1.65307033062       
0.781510770321      -0.079905167222     1.6431440115        
0.781510770321      0.079905167222      1.6431440115        
0.784801900387      -0.0911889597774    1.63176751137       
0.784801900387      0.0911889597774     1.63176751137       
0.788308918476      -0.100382119417     1.61934125423       
0.788308918476      0.100382119417      1.61934125423       
0.791952311993      -0.107269398868     1.6062861681        
0.791952311993      0.107269398868      1.6062861681        
0.795623481274      -0.111639551818     1.59305286407       
0.795623481274      0.111639551818      1.59305286407       
0.799157559872      -0.113321498036     1.58003461361       
0.799157559872      0.113321498036      1.58003461361       
0.802050292492      -0.111881479621     1.5661740303        
0.802050292492      0.111881479621      1.5661740303        
0.804904818535      -0.107512846589     1.55231702328       
0.804904818535      0.107512846589      1.55231702328       
0.807609319687      -0.100453168154     1.53906452656       
0.807609319687      0.100453168154      1.53906452656       
0.810093522072      -0.0910930335522    1.52683782578       
0.810093522072      0.0910930335522     1.52683782578       
0.812472581863      -0.0789700970054    1.51520180702       
0.812472581863      0.0789700970054     1.51520180702       
0.814489066601      -0.0650675296783    1.50533366203       
0.814489066601      0.0650675296783     1.50533366203       
0.816048800945      -0.0503063239157    1.49771106243       
0.816048800945      0.0503063239157     1.49771106243       
0.817213118076      -0.0344244688749    1.4921233654        
0.817213118076      0.0344244688749     1.4921233654        
0.817947089672      -0.0175669714808    1.48878026009       
0.817947089672      0.0175669714808     1.48878026009       
0.818202316761      0.0                 1.48785948753       
0.936911284924      0.0                 1.74335289001       
0.937689483166      -0.0300979148597    1.74198567867       
0.937689483166      0.0300979148597     1.74198567867       
0.940645694733      -0.0585979297757    1.73681747913       
0.940645694733      0.0585979297757     1.73681747913       
0.944844424725      -0.0856409743428    1.72760248184       
0.944844424725      0.0856409743428     1.72760248184       
0.949598014355      -0.110251218081     1.71480798721       
0.949598014355      0.110251218081      1.71480798721       
0.954854607582      -0.132143363357     1.69906485081       
0.954854607582      0.132143363357      1.69906485081       
0.960488200188      -0.150915563107     1.68108272552       
0.960488200188      0.150915563107      1.68108272552       
0.966390728951      -0.166223838925     1.66158986092       
0.966390728951      0.166223838925      1.66158986092       
0.972422003746      -0.177725404501     1.64136433601       
0.972422003746      0.177725404501      1.64136433601       
0.978378355503      -0.185105264187     1.62125647068       
0.978378355503      0.185105264187      1.62125647068       
0.98393201828       -0.188171669841     1.60207259655       
0.98393201828       0.188171669841      1.60207259655       
0.98817461729       -0.186065763235     1.58045423031       
0.98817461729       0.186065763235      1.58045423031       
0.992383718491      -0.178826838732     1.55845272541       
0.992383718491      0.178826838732      1.55845272541       
0.996327579021      -0.166968390346     1.53738856316       
0.996327579021      0.166968390346      1.53738856316       
0.999888002872      -0.151389211416     1.51812052727       
0.999888002872      0.151389211416      1.51812052727       
1.00345253944       -0.130108475685     1.49885845184       
1.00345253944       0.130108475685      1.49885845184       
1.00639235973       -0.105972640216     1.48287546635       
1.00639235973       0.105972640216      1.48287546635       
1.00852954388       -0.0816356763244    1.47122621536       
1.00852954388       0.0816356763244     1.47122621536       
1.01010274887       -0.0557675622404    1.46281886101       
1.01010274887       0.0557675622404     1.46281886101       
1.01108944416       -0.0284141507       1.45787596703       
1.01108944416       0.0284141507        1.45787596703       
1.01143109798       0.0                 1.45662093163       
1.12438881397       0.0                 1.81648671627       
1.12544763088       -0.0410492569208    1.81479227543       
1.12544763088       0.0410492569208     1.81479227543       
1.12969601154       -0.0800270587206    1.80811440945       
1.12969601154       0.0800270587206     1.80811440945       
1.13559269905       -0.117412477732     1.79586684704       
1.13559269905       0.117412477732      1.79586684704       
1.14202725887       -0.151436328888     1.7787270546        
1.14202725887       0.151436328888      1.7787270546        
1.14895534515       -0.18173712492      1.75757193565       
1.14895534515       0.18173712492       1.75757193565       
1.15621352196       -0.207726031542     1.73343706131       
[...]
CELL_DATA 17226
SCALARS panel_area float 1
LOOKUP_TABLE default
0.000184796342435   
0.000136690386775   
0.000184678632649   
0.000127543133327   
0.000171157803294   
0.000137464675385   
9.05384842953e-05   
0.000137095182878   
8.4485624823e-05    
0.000127111121949   
6.9338467297e-05    
0.000105869213158   
0.000158991918613   
6.96714720483e-05   
5.64771191003e-05   
5.43983225908e-05   
5.349636815e-05     
5.34624299334e-05   
5.43062303596e-05   
5.56719991378e-05   
5.59485366156e-05   
5.73411492631e-05   
6.30165351864e-05   
6.17127284747e-05   
5.97971534507e-05   
5.93178013853e-05   
6.01386522818e-05   
6.1010951779e-05    
6.05353171443e-05   
6.11593472813e-05   
6.30287216569e-05   
6.47024452807e-05   
6.54093099354e-05   
0.000193019538434   
0.000141152775819   
0.000168289801224   
0.000144212888986   
0.000194939697059   
0.000134955328502   
0.000106835460907   
0.000190358298212   
0.00010641723775    
0.000170108020541   
0.00017640938912    
0.000159944991844   
0.000202255249605   
0.000205663638741   
0.000189115911149   
0.00116220404526    
0.0010366134923     
0.000922019903588   
0.000817731320718   
0.000723042365273   
0.000637271769925   
0.000559798832198   
0.000489980210733   
0.0005605742156     
0.000533700740353   
0.000477540999761   
0.00124075966532    
0.00110648881717    
0.000983759923559   
0.000871874779002   
0.000770140612403   
0.00067786270874    
0.000594356059342   
0.000519011217156   
0.000613515735921   
0.000593159197516   
0.000495986701845   
0.00287078808927    
0.00290243534746    
0.00398176444198    
0.00408414672682    
0.00423932203459    
0.00524549895628    
0.0053812745016     
0.00557958212721    
0.00658470558721    
0.00667788031       
0.00681494021152    
0.00796683065721    
0.00797851165904    
0.00801031463232    
0.00935298941882    
0.00927115737453    
0.00919507301993    
0.0106893651608     
0.010514748739      
0.0103408219716     
0.0119046038567     
0.0116553022781     
0.0114056134158     
0.0129012820652     
0.012616413506      
0.0123323915674     
0.0135974450839     
0.0133323686209     
0.0130738700987     
0.0140244133228     
0.0138373994611     
0.0136538135206     
0.0143957144144     
0.0142912614041     
0.0141724254779     
0.0144507943745     
0.0144880980803     
0.0144853837296     
0.0141906316227     
0.0143861910144     
0.0145076986222     
0.013600548567      
0.0139633968996     
0.0142117181771     
0.0126825081865     
0.0132148304423     
0.0135866197889     
0.0114569295687     
0.0121494580082     
0.0126309073455     
0.00995807799347    
0.0107843213138     
0.0113478076201     
0.00822733471799    
0.00913710778056    
0.00973958330894    
0.00389808956347    
0.00392674599793    
0.00507015854118    
0.00518837509155    
0.00534822051772    
0.00639700163118    
0.00655648510283    
0.00672760093637    
0.00780659795575    
0.00791290564205    
0.0080014994094     
0.00922831319965    
0.00923898565538    
0.00921852119162    
0.010597935719      
0.0105088059647     
0.0103913105037     
0.0118526436469     
0.011676715242      
0.011485292375      
0.0129145702843     
0.0126839926032     
0.012451805798      
0.0137088120084     
0.0134675347495     
0.013236133012      
0.0142348068617     
0.0140138789941     
0.013822769693      
0.0145672353424     
0.0143911214358     
0.0142656532307     
0.0146415702343     
0.0145638593712     
0.0145207330366     
0.0143142121339     
0.0144027435398     
0.0144878411176     
0.0136597084399     
0.0139287248479     
0.014146234468      
0.0126777659459     
0.0131294789918     
0.0134764056988     
0.0113813889422     
0.0120078965164     
0.0124739316996     
0.00980250929583    
0.0105808576322     
0.0111444977747     
0.00798708765456    
0.00887233518295    
0.00949697301175    
0.00599297023535    
0.00690657108254    
0.00753652895213    
0.00759177108607    
0.0183435932799     
0.0074019656203     
0.00826387171596    
0.00816480246665    
0.0101205855048     
0.0116960422376     
0.0129106044165     
0.0137797470343     
0.0143171481643     
0.0145366651775     
0.0144534235718     
0.0140963832792     
0.0135843831168     
0.0129704716268     
0.0122152469526     
0.0113293895908     
0.010339789143      
0.00927391413783    
0.00815611291253    
0.00700458882522    
0.00575441824463    
0.00432748515787    
0.00589331854063    
0.00538323873599    
0.00344667026318    
0.00417388473393    
0.00345107136227    
0.0045845360171     
0.00583929065347    
0.0072219007732     
0.0092419430162     
0.0110598583381     
0.0126170427471     
0.0143150108231     
0.0167531106775     
0.0177769924851     
0.00888867387834    
0.00896841877571    
0.0152070694305     
0.0147233278431     
0.0138646309798     
0.0126433408012     
0.0110914315463     
0.00925699290322    
0.00721785239424    
0.00498414411245    
0.00445401276243    
0.00327227776496    
0.00988125614942    
0.00400325726471    
0.00485770311999    
0.0053914153173     
0.00661524014412    
0.00684365834074    
0.00658648545346    
0.00809902657141    
0.00816840666293    
0.00925181029094    
0.00983892783217    
0.0103502961806     
0.0114311327436     
0.0113748015352     
0.0127720279377     
0.0122954285111     
0.0128527416373     
0.0130741230266     
0.0137593546749     
0.013681640398      
0.0143678234925     
0.0141215023917     
0.0145810638146     
0.0143945636046     
0.0143874809305     
0.0144373611987     
0.0136879318682     
0.0141887016293     
0.0125976980148     
0.0136241569409     
0.0111496380968     
0.0127301010287     
0.00939908564474    
0.0114964082222     
0.00742398881586    
0.0099125129874     
0.00560215152076    
0.00533117980893    
0.0229364597387     
0.00796338094414    
0.00415450352969    
0.00145075457231    
0.00271708773811    
0.00413503897452    
0.0056303123731     
0.00712544220284    
0.0085427370922     
0.00980704843944    
0.010868124779      
0.0117162200834     
0.0123549989722     
0.0014028250725     
0.00262281607833    
0.00399366081506    
0.00544630763084    
0.00690789874089    
0.0083047033114     
0.00956512224009    
0.0106371646119     
0.0115101568497     
0.0121866380138     
0.00139141365046    
0.00261313940089    
0.00400749220033    
0.00551304644301    
0.00706226308507    
0.00858486803258    
0.0100109225905     
0.0112730215277     
0.0123567729397     
0.0132607224138     
0.00137915905807    
0.00256922223255    
0.00392055089747    
0.00537700019435    
0.00687786263597    
0.00836225356466    
0.00977152932305    
0.0110220127511     
0.0121069037338     
0.0130276884492     
0.00137190097077    
0.00253110256004    
0.00384091510173    
0.00525196914141    
0.00671213109601    
0.00817245022059    
0.00958691552179    
0.0108474050805     
0.0119583365727     
0.0129235803247     
0.00136038354446    
0.00247468220933    
0.00372269099142    
0.00506265384939    
0.00645266659943    
0.00785826204401    
0.00924695177669    
0.0104819833736     
0.0115836489859     
0.0125578589552     
0.00134136254947    
0.00239535662115    
0.0035622165422     
0.00480880764621    
0.00610471461411    
0.00743160138422    
0.00876910328858    
0.00995077762377    
0.0110151935074     
0.0119693993461     
0.0013118951646     
0.00228600710354    
0.00334684495457    
0.00447061453174    
0.00563905866205    
0.00685020662498    
0.00809273885206    
0.00917466142054    
0.0101532346729     
0.0110356684241     
0.00127094002679    
0.00214291714438    
0.00306857945183    
0.00403349833484    
0.00503112270416    
0.00607402378322    
0.00715444463732    
0.0080663429519     
0.00888272566232    
0.00961042978499    
0.00122840903536    
0.00197959939645    
0.00273835966052    
0.00349938449766    
0.00426650681236    
0.00506226613024    
0.00587595619993    
0.00650804545826    
0.00704032394011    
0.00747915130072    
0.00132304338692    
0.00221819928855    
0.00318815980803    
0.00423774255218    
0.00538903378425    
0.00669945678617    
0.00817470835335    
0.00949650775623    
0.0108041355638     
0.0121146830984     
0.00139180802354    
0.00236413208146    
0.00341001108332    
0.00453003622687    
0.00574423483328    
0.00711426191992    
0.00862814279955    
0.00986888808976    
0.0110105966345     
0.012079325482      
0.0014442107007     
0.00245471619939    
0.0035267110834     
0.00466476451925    
0.00589460628424    
0.00728836402837    
0.00882551949129    
0.0100101405282     
0.0110504162314     
0.0119811239987     
0.00148296234813    
0.00249908194366    
0.00355073632328    
0.00464683791563    
0.00581796545252    
0.00714275215457    
0.00859450344905    
0.00963847283059    
0.0105135486567     
0.011266816921      
0.00161849749629    
0.00287440279401    
0.00428802630636    
0.00588366979122    
0.00771822603694    
0.00992799842073    
0.0125012428525     
0.0145877319884     
0.0165232212365     
0.0183645003125     
0.00164124673389    
0.00287882228893    
0.00424802198816    
0.00578255387103    
0.00755198704447    
0.00971313363195    
0.0122698135451     
0.0143356159503     
0.0162897924122     
0.0182127742497     
0.0015984338158     
0.00266778545966    
0.00375399297616    
0.00488757046318    
0.00612592559949    
0.00759204939947    
0.00927165946407    
0.010466011279      
0.0115152093478     
0.01249720086       
0.00161916208823    
0.00267722430053    
0.0037387801854     
0.00483950080793    
0.00604097901676    
0.00747033065205    
0.00911353405921    
0.0102628832914     
0.0112640490091     
0.0121915389318     
0.00165219577709    
0.0027266445268     
0.00381041396265    
0.00494641631779    
0.00620450093528    
0.00772492319515    
0.00950065458936    
0.0107772340221     
0.0119128608843     
0.0129783272015     
0.00169080354976    
0.00278421931312    
0.00389308430321    
0.00506709063662    
0.00638377108005    
0.00799542016918    
0.00990128604462    
0.0113011111886     
0.0125600848525     
0.0137423385857     
0.000475861337432   
0.00165703085926    
0.00303335463664    
0.00453528575345    
0.00608831752665    
0.00761624408531    
0.00904377747257    
0.0102943057868     
0.011321976998      
0.0121229743734     
0.000468908894602   
0.00160409120664    
0.00293058739163    
0.00438519119236    
0.00589939008109    
0.00740287406071    
0.00882583509011    
0.0100821006089     
0.0111286329813     
0.0119623374456     
0.000468332347529   
0.00158870367824    
0.00291568564731    
0.00439579091485    
0.00596886393587    
0.00757190905951    
0.00914049303171    
0.0105649093079     
0.0118035008225     
0.0128504523717     
0.000472043842956   
0.0015691017151     
0.00285794055935    
0.00429012831014    
0.00581253211945    
0.007372185967      
0.00891541742552    
0.010312554313      
0.0115358938639     
0.0125844303926     
0.000479176355028   
0.0015536118055     
0.00280494449969    
0.00419114405344    
0.00566785663203    
0.00719448272257    
0.00872924529553    
0.0101173926776     
0.011348097241      
0.0124246353376     
0.000489149233643   
0.00153188523019    
0.00273030469417    
0.00404921163103    
0.00545406917823    
0.00691860949823    
0.00841316799579    
0.00975761508132    
0.0109610508677     
0.012031553046      
0.000501774797839   
0.00150065488378    
0.00262970298508    
0.00386132077394    
0.00517175977816    
0.00655022581356    
0.00797796037829    
0.00925180369538    
0.0104013867262     
0.0114389584795     
0.000517203617694   
0.00145697053927    
0.0024960504798     
0.00361467013139    
0.00480026755345    
0.00605739007329    
0.00737551907668    
0.00853590712542    
0.00958653006897    
0.0105431121272     
0.000535921800197   
0.00140002195725    
0.00232612859606    
0.0033016898844     
0.00432458235323    
0.00541246681118    
0.00655919485609    
0.0075431042301     
0.00842544170614    
0.00922419416699    
0.000558492715853   
0.00134090828709    
0.00213551170654    
0.00293545619954    
0.00374753472403    
0.0045981855489     
0.00548130743388    
0.006191343244      
0.00679541272328    
0.00731220102463    
0.000562966578492   
0.00142464855709    
0.00236629888548    
0.00338605215408    
0.00450563120528    
0.00578427466064    
0.00724052841519    
0.00856482678007    
0.0098644131752     
0.0111699021184     
0.000551418981686   
0.00148411180855    
0.00250404933904    
0.00360595413076    
0.00481097669694    
0.00618455265123    
0.00773408650945    
0.00904889106682    
0.0102561222219     
0.011390567442      
0.000544339636861   
0.00152618881079    
0.00258420561961    
0.00371775393164    
0.00495465124231    
0.00637178812605    
0.00797130493224    
0.00926463604195    
0.0104068916711     
0.0114377938348     
0.000540783705669   
0.00155451111433    
0.00261779681256    
0.00373535525723    
0.00493988879273    
0.00631459023647    
0.00785419316485    
0.00902846346584    
0.0100227908544     
0.0108863840153     
0.000540305545192   
0.00168335137539    
0.00299426932059    
0.00449570293308    
0.00624869807393    
0.00839685268248    
0.0109662364063     
0.0131376198657     
0.0151670371845     
0.0171085489557     
0.000542053729287   
0.00169514843735    
0.00298561377062    
0.0044456670062     
0.00614667370423    
0.00824706001929    
0.0107801449928     
0.0128998151027     
0.0149069399161     
0.016874516937      
0.000545883636939   
0.00164183787716    
0.00275952321446    
0.00392842670927    
0.00520632857805    
0.00671551054198    
0.00845757556853    
0.00975195448312    
0.0108863944405     
0.0119348247037     
0.000552373626197   
0.00165595078938    
0.00276444967963    
0.00391300314784    
0.00516283781911    
0.0066388797216     
0.00834141950146    
0.00958817478946    
0.0106765241255     
0.0116770213304     
0.000562411702148   
0.0016845936433     
0.00281299530763    
0.00399012685484    
0.00528453424797    
0.00683198445022    
0.00863996717165    
0.00999728616389    
0.0112124944966     
0.0123510859683     
0.000577310424264   
0.0017213570474     
0.00287277684325    
0.00408097841537    
0.00542142236839    
0.00703993348001    
0.00895151775966    
0.0104197890721     
0.011757855241      
0.0130225806125     
0.00697994666194    
0.00603791139563    
0.00625145629494    
0.00894627297176    
0.0105442005436     
0.0117539256862     
0.0128101168138     
0.0137462353244     
0.0145889647526     
0.0153634617184     
0.0160493445601     
0.0155401034401     
0.0165392847336     
0.0150586637036     
0.0137756413911     
0.0125967352996     
0.0114803776415     
0.0104198919289     
0.00940833850341    
0.0084112292528     
0.00696749100189    
0.00688776763594    
0.00680480356466    
0.00892309038852    
0.0103760397699     
0.0116319672003     
0.012748768         
0.0137548123057     
0.0146773807584     
0.0152578600967     
0.0137854045583     
0.0126169447767     
0.0114312243597     
0.0103011028161     
0.0093047369995     
0.00824797447443    
0.0147760317316     
0.0148563784186     
0.0149181621205     
0.0149787858658     
0.0150517752475     
0.0151356700574     
0.0152250536761     
0.0146934427086     
0.0148050946736     
0.0148867531131     
0.014950047638      
0.0150124660995     
0.015087406145      
0.0151729529126     
0.0153582501878     
0.0153069869665     
0.0152811905726     
0.0151971044203     
0.0151175460203     
0.0150471779145     
0.0149873435246     
0.0149262757604     
0.0148490366754     
0.0147462157735     
0.00690432685677    
0.00652395320597    
0.00612498779779    
0.0062905084384     
0.0091410772317     
0.00917786618267    
0.0145838112017     
0.0146463064525     
0.0147198445983     
0.0148056845157     
0.0149093177799     
0.0150333116551     
0.0151787126591     
0.0148141667827     
0.0146309519763     
0.0147094630417     
0.0148892585461     
0.0146711936048     
0.0149482877446     
0.0147226489445     
0.0150062381736     
0.0147849454882     
0.0150748610094     
0.0148616258675     
0.0151527075274     
0.0149575953984     
0.0152349390362     
0.0152717417833     
0.0150742061976     
0.0152123308297     
0.015305429081      
0.0147477765294     
0.0146203068159     
0.00562786498301    
0.006284771657      
0.00801937123295    
0.00840384825661    
0.00879005577457    
0.00898478077086    
0.00918912819461    
0.00945112561143    
0.00982024904307    
0.0103418805734     
0.0101466527886     
0.00994649060994    
0.00976353758779    
0.00956621962891    
0.00932415486743    
0.0090103167782     
0.00859961367387    
0.00763562377557    
0.00648470688791    
0.005729279357      
0.00655569547755    
0.00821510356237    
0.00843123903675    
0.00867523908656    
0.00889691007021    
0.00913165247105    
0.00942785633939    
0.00983533381672    
0.0100858764491     
0.00985154482198    
0.0096087301857     
0.00932746987999    
0.0089810750615     
0.00855774515287    
0.00801306976821    
0.006255967327      
0.013860684286      
0.0142919346989     
0.0146527123275     
0.0139626895206     
0.0144140153423     
0.0148801266626     
0.0140127136214     
0.0144618003275     
0.0150128203343     
0.0141201783176     
0.0145778562538     
0.0151971123197     
0.0154047052269     
0.0143425401761     
0.0148001946913     
0.0154549812609     
0.015672148338      
0.0146848008915     
0.015121257247      
0.0157714623724     
0.0159788238634     
0.0151529196014     
0.0155344661269     
0.0161343173402     
0.0163080226556     
0.0162719308445     
0.0157530849309     
0.0160355052345     
0.0165353298925     
0.0166447115628     
0.0165578867251     
0.0164825883254     
0.0166214933431     
0.0169714365416     
0.0169816360588     
0.0168217027037     
0.014297354995      
0.0147073018307     
0.0151258146392     
0.0144412255935     
0.014832837022      
0.0153213614571     
0.014489462813      
0.0148902689314     
0.015446685782      
0.0146096906859     
0.0150205151271     
0.0156189331286     
0.0157971968166     
0.0148592631809     
0.0152627953002     
0.0158661882681     
0.0160486445622     
0.0152402012505     
0.0156063270044     
0.016173302396      
0.0163380512427     
0.0157561555932     
0.0160430212656     
0.0165289110666     
0.0166494623117     
0.0165858459441     
0.0164060553459     
0.0165710519334     
0.0169310262496     
0.0169772960029     
0.0168660015391     
0.0171857055038     
0.0171900901093     
0.0173793602421     
0.0173194291171     
0.0171357085766     
0.00465736496425    
0.000179110119773   
0.000179155890941   
0.00517585430596    
0.0322290612983     
0.0184499760615     
0.0121746155908     
0.0220042093851     
0.0170823157973     
0.0118408276948     
0.0234986790845     
0.0195046844172     
0.0162345150769     
0.0150191982176     
0.0140952965898     
0.0195535047717     
0.0194630421106     
0.0138237554253     
0.0140541658582     
0.0142406719583     
0.0143687087657     
0.0145688030098     
0.0148881209407     
0.0153308747289     
0.0159062697254     
0.016613780137      
0.0174455864007     
0.0209221730298     
0.015983607752      
0.0187724603435     
0.014121136928      
0.0158146208709     
0.0129922529287     
0.0141137773059     
0.0128558180965     
0.0140404890826     
0.0138376919332     
0.0143852145842     
0.01472627128       
0.0154016514514     
0.0139121079527     
0.0186024679742     
0.0139430334353     
0.0156030389137     
0.0140556394306     
0.0123399200343     
0.014304151674      
0.0175866277522     
0.0146867018866     
0.0163027958664     
0.0152089400461     
0.0126765052028     
0.0158825417151     
0.0183784828141     
0.015904899396      
0.0167081323058     
0.0154851713505     
0.0153580412077     
0.0149541241172     
0.0182426420339     
0.0144930058481     
0.0177008515787     
0.0176457264345     
0.0197133406796     
0.000241530275738   
0.0172269963311     
0.0172631702595     
0.0172708775902     
0.0172394501912     
0.0170222609596     
0.0170234798236     
0.0169883480095     
0.0169108142182     
0.0167849379427     
0.0167566800105     
0.01669184407       