# vtk DataFile Version 3.0
PyPan mesh file. Generated by PyPan, USU AeroLab (c) 2020.
ASCII
DATASET POLYDATA
POINTS 522 float
-4.79848623276      -3.0                0.0                 
-4.79848623276      3.0                 0.0                 
-4.75187635422      -3.00290560722      0.0                 
-4.75187635422      3.00290560722       0.0                 
-4.75184059143      -3.00286984444      -0.000454522290966  
-4.75184059143      -3.00286984444      0.000454522290966   
-4.75184059143      3.00286984444       -0.000454522290966  
-4.75184059143      3.00286984444       0.000454522290966   
-4.75173425674      -3.00276327133      -0.000897852703929  
-4.75173425674      -3.00276327133      0.000897852703929   
-4.75173425674      3.00276327133       -0.000897852703929  
-4.75173425674      3.00276327133       0.000897852703929   
-4.75155973434      -3.00258874893      -0.00131907500327   
-4.75155973434      -3.00258874893      0.00131907500327    
-4.75155973434      3.00258874893       -0.00131907500327   
-4.75155973434      3.00258874893       0.00131907500327    
-4.75132131577      -3.00235056877      -0.00170781742781   
-4.75132131577      -3.00235056877      0.00170781742781    
-4.75132131577      3.00235056877       -0.00170781742781   
-4.75132131577      3.00235056877       0.00170781742781    
-4.75102519989      -3.0020544529       -0.00205450761132   
-4.75102519989      -3.0020544529       0.00205450761132    
-4.75102519989      3.0020544529        -0.00205450761132   
-4.75102519989      3.0020544529        0.00205450761132    
-4.75067853928      -3.00170779228      -0.00235060905106   
-4.75067853928      -3.00170779228      0.00235060905106    
-4.75067853928      3.00170779228       -0.00235060905106   
-4.75067853928      3.00170779228       0.00235060905106    
-4.75028991699      -3.00131917         -0.00258883065544   
-4.75028991699      -3.00131917         0.00258883065544    
-4.75028991699      3.00131917          -0.00258883065544   
-4.75028991699      3.00131917          0.00258883065544    
-4.74986886978      -3.00089788437      -0.00276330648921   
-4.74986886978      -3.00089788437      0.00276330648921    
-4.74986886978      3.00089788437       -0.00276330648921   
-4.74986886978      3.00089788437       0.00276330648921    
-4.74942541122      -3.00045442581      -0.00286974082701   
-4.74942541122      -3.00045442581      0.00286974082701    
-4.74942541122      3.00045442581       -0.00286974082701   
-4.74942541122      3.00045442581       0.00286974082701    
-4.74897098541      -3.0                -0.00290551246144   
-4.74897098541      -3.0                0.00290551246144    
-4.74897098541      3.0                 -0.00290551246144   
-4.74897098541      3.0                 0.00290551246144    
-4.7480134964       -2.92658472061      0.0                 
-4.7480134964       2.92658472061       0.0                 
-4.6969833374       -2.92658472061      -0.00299439113587   
-4.6969833374       -2.92658472061      0.00299439113587    
-4.6969833374       2.92658472061       -0.00299439113587   
-4.6969833374       2.92658472061       0.00299439113587    
-4.62038707733      -3.01015591621      0.0                 
-4.62038707733      3.01015591621       0.0                 
-4.620262146        -3.01003074646      -0.00158872373868   
-4.620262146        -3.01003074646      0.00158872373868    
-4.620262146        3.01003074646       -0.00158872373868   
-4.620262146        3.01003074646       0.00158872373868    
-4.61989021301      -3.00965881348      -0.00313832773827   
-4.61989021301      -3.00965881348      0.00313832773827    
-4.61989021301      3.00965881348       -0.00313832773827   
-4.61989021301      3.00965881348       0.00313832773827    
-4.61928033829      -3.00904893875      -0.00461065582931   
-4.61928033829      -3.00904893875      0.00461065582931    
-4.61928033829      3.00904893875       -0.00461065582931   
-4.61928033829      3.00904893875       0.00461065582931    
-4.61844778061      -3.00821614265      -0.00596945453435   
-4.61844778061      -3.00821614265      0.00596945453435    
-4.61844778061      3.00821614265       -0.00596945453435   
-4.61844778061      3.00821614265       0.00596945453435    
-4.61741256714      -3.0071811676       -0.00718126492575   
-4.61741256714      -3.0071811676       0.00718126492575    
-4.61741256714      3.0071811676        -0.00718126492575   
-4.61741256714      3.0071811676        0.00718126492575    
-4.61620092392      -3.00596952438      -0.00821624882519   
-4.61620092392      -3.00596952438      0.00821624882519    
-4.61620092392      3.00596952438       -0.00821624882519   
-4.61620092392      3.00596952438       0.00821624882519    
-4.61484193802      -3.00461053848      -0.00904892198741   
-4.61484193802      -3.00461053848      0.00904892198741    
-4.61484193802      3.00461053848       -0.00904892198741   
-4.61484193802      3.00461053848       0.00904892198741    
-4.61336946487      -3.00313830376      -0.00965877994895   
-4.61336946487      -3.00313830376      0.00965877994895    
-4.61336946487      3.00313830376       -0.00965877994895   
-4.61336946487      3.00313830376       0.00965877994895    
-4.61182022095      -3.00158882141      -0.0100308069959    
-4.61182022095      -3.00158882141      0.0100308069959     
-4.61182022095      3.00158882141       -0.0100308069959    
-4.61182022095      3.00158882141       0.0100308069959     
-4.61023139954      -3.0                -0.0101558426395    
-4.61023139954      -3.0                0.0101558426395     
-4.61023139954      3.0                 -0.0101558426395    
-4.61023139954      3.0                 0.0101558426395     
-4.60153532028      -2.71352553368      0.0                 
-4.60153532028      2.71352553368       0.0                 
-4.55399990082      -2.92658472061      -0.0104665057734    
-4.55399990082      -2.92658472061      0.0104665057734     
-4.55399990082      2.92658472061       -0.0104665057734    
-4.55399990082      2.92658472061       0.0104665057734     
-4.54610919952      -2.71352553368      -0.00325232720934   
-4.54610919952      -2.71352553368      0.00325232720934    
-4.54610919952      2.71352553368       -0.00325232720934   
-4.54610919952      2.71352553368       0.00325232720934    
-4.42829799652      -3.0185508728       0.0                 
-4.42829799652      3.0185508728        0.0                 
-4.42806959152      -3.0183224678       -0.00290200323798   
-4.42806959152      -3.0183224678       0.00290200323798    
-4.42806959152      3.0183224678        -0.00290200323798   
-4.42806959152      3.0183224678        0.00290200323798    
-4.42739009857      -3.01764297485      -0.0057325498201    
-4.42739009857      -3.01764297485      0.0057325498201     
-4.42739009857      3.01764297485       -0.0057325498201    
-4.42739009857      3.01764297485       0.0057325498201     
-4.42627573013      -3.01652908325      -0.00842194166034   
-4.42627573013      -3.01652908325      0.00842194166034    
-4.42627573013      3.01652908325       -0.00842194166034   
-4.42627573013      3.01652908325       0.00842194166034    
-4.42475509644      -3.01500797272      -0.0109039572999    
-4.42475509644      -3.01500797272      0.0109039572999     
-4.42475509644      3.01500797272       -0.0109039572999    
-4.42475509644      3.01500797272       0.0109039572999     
-4.4228644371       -3.0131175518       -0.0131174819544    
-4.4228644371       -3.0131175518       0.0131174819544     
-4.4228644371       3.0131175518        -0.0131174819544    
-4.4228644371       3.0131175518        0.0131174819544     
-4.42065095901      -3.01090407372      -0.0150080099702    
-4.42065095901      -3.01090407372      0.0150080099702     
-4.42065095901      3.01090407372       -0.0150080099702    
-4.42065095901      3.01090407372       0.0150080099702     
-4.41816902161      -3.00842189789      -0.0165289919823    
-4.41816902161      -3.00842189789      0.0165289919823     
-4.41816902161      3.00842189789       -0.0165289919823    
-4.41816902161      3.00842189789       0.0165289919823     
-4.41547966003      -3.00573253632      -0.0176429729909    
-4.41547966003      -3.00573253632      0.0176429729909     
-4.41547966003      3.00573253632       -0.0176429729909    
-4.41547966003      3.00573253632       0.0176429729909     
-4.41264915466      -3.00290203094      -0.0183225274086    
-4.41264915466      -3.00290203094      0.0183225274086     
-4.41264915466      3.00290203094       -0.0183225274086    
-4.41264915466      3.00290203094       0.0183225274086     
-4.40974712372      -3.0                -0.0185509212315    
-4.40974712372      -3.0                0.0185509212315     
-4.40974712372      3.0                 -0.0185509212315    
-4.40974712372      3.0                 0.0185509212315     
-4.39080905914      -2.71352553368      -0.0113680884242    
-4.39080905914      -2.71352553368      0.0113680884242     
-4.39080905914      2.71352553368       -0.0113680884242    
-4.39080905914      2.71352553368       0.0113680884242     
-4.37339019775      -2.38167786598      0.0                 
-4.37339019775      2.38167786598       0.0                 
-4.34738254547      -2.92658472061      -0.0191183872521    
-4.34738254547      -2.92658472061      0.0191183872521     
-4.34738254547      2.92658472061       -0.0191183872521    
-4.34738254547      2.92658472061       0.0191183872521     
-4.31111764908      -2.38167786598      -0.00365407182835   
-4.31111764908      -2.38167786598      0.00365407182835    
-4.31111764908      2.38167786598       -0.00365407182835   
-4.31111764908      2.38167786598       0.00365407182835    
-4.21155977249      -3.02433371544      0.0                 
-4.21155977249      3.02433371544       0.0                 
-4.21126031876      -3.0240342617       -0.00380664574914   
[...]
CELL_DATA 1040
SCALARS panel_area float 1
LOOKUP_TABLE default
0.00911931096647    
0.00844981132645    
0.0255357550748     
0.0236610364879     
0.0368810394208     
0.0341734147418     
0.0409499533348     
0.0379436044255     
0.0371024775919     
0.0343785896482     
0.0267315598041     
0.0247690528924     
0.0143885902616     
0.01333225265       
0.0143885902616     
0.01333225265       
0.0267315598041     
0.0247690528924     
0.0371024775919     
0.0343785896482     
0.0409499533348     
0.0379436044255     
0.0368810394208     
0.0341734147418     
0.0255357550748     
0.0236610364879     
0.00911931096647    
0.00844981132645    
0.0245223053383     
0.0188836438548     
0.0686669965131     
0.0528776964781     
0.0991751035949     
0.0763707146903     
0.110116619184      
0.0847963688426     
0.0997705445926     
0.0768292664487     
0.0718825863592     
0.0553538794217     
0.038691697703      
0.0297949106127     
0.038691697703      
0.0297949106127     
0.0718825863592     
0.0553538794217     
0.0997705445926     
0.0768292664487     
0.110116619184      
0.0847963688426     
0.0991751035949     
0.0763707146903     
0.0686669965131     
0.0528776964781     
0.0245223053383     
0.0188836438548     
0.0294029969535     
0.0164202914998     
0.0823380454117     
0.0459822704597     
0.118923067866      
0.0664133811169     
0.132033882895      
0.0737352219393     
0.119569735978      
0.0667745403977     
0.0859004746164     
0.0479716978919     
0.0453669470457     
0.0253354740505     
0.0453669470457     
0.0253354740505     
0.0859004746164     
0.0479716978919     
0.119569735978      
0.0667745403977     
0.132033882895      
0.0737352219393     
0.118923067866      
0.0664133811169     
0.0823380454117     
0.0459822704597     
0.0294029969535     
0.0164202914998     
0.0206782348639     
0.018869930716      
0.0579086820399     
0.0528446006373     
0.0836185130949     
0.0763062072848     
0.0927333202385     
0.0846238748682     
0.0835213035116     
0.0762174530912     
0.058073489089      
0.0529950409781     
0.0225656215286     
0.020592291718      
0.0225656215286     
0.020592291718      
0.058073489089      
0.0529950409781     
0.0835213035116     
0.0762174530912     
0.0927333202385     
0.0846238748682     
0.0836185130949     
0.0763062072848     
0.0579086820399     
0.0528446006373     
0.0206782348639     
0.018869930716      
0.0209174839536     
0.018695531444      
0.0585787039932     
0.0523560296256     
0.0845861010684     
0.0756007121306     
0.0938063086856     
0.083841541226      
0.0844877162848     
0.0755128337147     
0.0587454683529     
0.0525050790339     
0.0228267361781     
0.0204018908989     
0.0228267361781     
0.0204018908989     
0.0587454683529     
0.0525050790339     
0.0844877162848     
0.0755128337147     
0.0938063086856     
0.083841541226      
0.0845861010684     
0.0756007121306     
0.0585787039932     
0.0523560296256     
0.0209174839536     
0.018695531444      
0.0186955314643     
0.016473468684      
0.0523560296983     
0.0461334105448     
0.0756007121684     
0.0666153784022     
0.0838415412131     
0.0738767737424     
0.075512833718      
0.0665378958744     
0.052505079057      
0.0462647449748     
0.020401890905      
0.0179770713599     
0.020401890905      
0.0179770713599     
0.052505079057      
0.0462647449748     
0.075512833718      
0.0665378958744     
0.0838415412131     
0.0738767737424     
0.0756007121684     
0.0666153784022     
0.0523560296983     
0.0461334105448     
0.0186955314643     
0.016473468684      
0.014860927498      
0.0130526730873     
0.0416175416125     
0.0365535100025     
0.0600945876999     
0.052782232074      
0.0666451856486     
0.0585357402997     
0.0600246897434     
0.0527208393293     
0.0417360202661     
0.0366575223584     
0.0162173473944     
0.0142440406159     
0.0162173473944     
0.0142440406159     
0.0417360202661     
0.0366575223584     
0.0600246897434     
0.0527208393293     
0.0666451856486     
0.0585357402997     
0.0600945876999     
0.052782232074      
0.0416175416125     
0.0365535100025     
0.014860927498      
0.0130526730873     
0.0103586630413     
0.00921980096502    
0.0290090383276     
0.0258196368573     
0.041888228925      
0.0372828152024     
0.0464542402294     
0.0413468605387     
0.0418395073235     
0.0372395293765     
0.0290915828866     
0.0258931412357     
0.0113041370224     
0.0100612876164     
0.0113041370224     
0.0100612876164     
0.0290915828866     
0.0258931412357     
0.0418395073235     
0.0372395293765     
0.0464542402294     
0.0413468605387     
0.041888228925      
0.0372828152024     
0.0290090383276     
0.0258196368573     
0.0103586630413     
0.00921980096502    
0.00591947298427    
0.00544998728439    
0.0165772171837     
0.0152624941738     
0.023937026128      
0.0220386732842     
0.0265463022546     
0.0244409460118     
0.0239092349391     
0.0220130394024     
0.0166244099336     
0.015305944169      
0.00645974136807    
0.00594743131931    
0.00645974136807    
0.00594743131931    
0.0166244099336     
0.015305944169      
0.0239092349391     
0.0220130394024     
0.0265463022546     
0.0244409460118     
0.023937026128      
0.0220386732842     
0.0165772171837     
0.0152624941738     
0.00591947298427    
0.00544998728439    
0.00187793985661    
0.00182219024873    
0.00525910327388    
0.00510300932316    
0.00759401826843    
0.00736860293874    
0.00842178599932    
0.00817183003406    
0.00758518541677    
0.00736003228064    
0.00527407510598    
0.00511753678342    
0.00204934706053    
0.00198851853709    
0.00204934706053    
0.00198851853709    
0.00527407510598    
0.00511753678342    
0.00758518541677    
0.00736003228064    
0.00842178599932    
0.00817183003406    
0.00759401826843    
0.00736860293874    
0.00525910327388    
0.00510300932316    
0.00187793985661    
0.00182219024873    
1.12721105125e-05   
0.000110405068738   
3.1577457981e-05    
0.000291357748117   
0.000159514272796   
0.00042425464731    
0.000323439005378   
0.000371364416704   
0.000382875200546   
0.000162004106565   
0.000259226659789   
6.33703885336e-05   
1.11746671228e-05   
0.000109492578114   
3.1336102239e-05    
0.000289453980351   
0.000158453765722   
0.000422546741645   
0.000322126265948   
0.00037155760723    
0.000383094961695   
0.000163554007412   
0.000261712909495   
6.5708161271e-05    
1.10730144563e-05   
0.000108623737102   
3.10820367603e-05   
0.000287616276926   
0.000157450916658   
0.00042090652052    
0.00032086632027    
0.000371765131244   
0.000383315773016   
0.000165054584347   
0.000264099717627   
6.78908206536e-05   
1.09745376456e-05   
0.000107817944484   
3.08356001484e-05   
0.000285900126972   
0.000156526944327   
0.000419325759433   
0.000319697705672   
0.000371966124131   
0.000383488278362   
0.000166445511288   
0.000266322051917   
6.98727669083e-05   
1.08899883827e-05   
0.00010704552238    
3.06259204112e-05   
0.000284300382721   
0.000155631482376   
0.000417932233617   
0.000318597849017   
0.0003721317303     
0.000383687110149   
0.000167670472242   
0.000268311366186   
7.16149232706e-05   
1.08145774463e-05   
0.000106391998832   
3.04387106519e-05   
0.000282906146318   
0.000154882494081   
0.000416671072852   
0.00031764620163    
0.000372274181591   
0.000383825562933   
0.00016876565721    
0.000270037474964   
7.31148379225e-05   
1.07500374958e-05   
0.000105843395953   
3.02783955325e-05   
0.00028175885109    
0.000154253883454   
0.000415638042565   
0.000316870656889   
0.000372399499821   
0.000383956821281   
0.000169653995863   
0.000271467522047   
7.43329726958e-05   
1.070147404e-05     
0.000105410161452   
3.01582048485e-05   
0.000280848528938   
0.000153754967737   
0.000414837920994   
0.00031624880817    
0.000372504165467   
0.000384058110203   
0.000170343310701   
0.000272572728258   
7.52625599845e-05   
1.06680166835e-05   
0.000105114923659   
3.00752531646e-05   
0.00028023580404    
0.000153415715529   
0.000414292526762   
0.000315833548977   
0.00037256292433    
0.000384125615188   
0.000170812248422   
0.000273314853574   
7.58892564397e-05   
1.06500451173e-05   
0.00010496838812    
3.00304455817e-05   
0.000279925709986   
0.000153248330825   
0.000414012189559   
0.000315624138971   
0.000372597605612   
0.000384157468976   
0.000171044528608   
0.00027369264112    
7.6202666825e-05    
1.06500451173e-05   
3.00304455817e-05   
0.00010496838812    
0.000153248330825   
0.000279925709986   
0.000315624138971   
0.000414012189559   
0.000384157468976   
0.000372597605612   
0.00027369264112    
0.000171044528608   
7.6202666825e-05    
1.06680166835e-05   
3.00752531646e-05   
0.000105114923659   
0.000153415715529   
0.00028023580404    
0.000315833548977   
0.000414292526762   
0.000384125615188   
0.00037256292433    
0.000273314853574   
0.000170812248422   
7.58892564397e-05   
1.070147404e-05     
3.01582048485e-05   
0.000105410161452   
0.000153754967737   
0.000280848528938   
0.00031624880817    
0.000414837920994   
0.000384058110203   
0.000372504165467   
0.000272572728258   
0.000170343310701   
7.52625599845e-05   
1.07500374958e-05   
3.02783955325e-05   
0.000105843395953   
0.000154253883454   
0.00028175885109    
0.000316870656889   
0.000415638042565   
0.000383956821281   
0.000372399499821   
0.000271467522047   
0.000169653995863   
7.43329726958e-05   
1.08145774463e-05   
3.04387106519e-05   
0.000106391998832   
0.000154882494081   
0.000282906146318   
0.00031764620163    
0.000416671072852   
0.000383825562933   
0.000372274181591   
0.000270037474964   
0.00016876565721    
7.31148379225e-05   
1.08899883827e-05   
3.06259204112e-05   
0.00010704552238    
0.000155631482376   
0.000284300382721   
0.000318597849017   
0.000417932233617   
0.000383687110149   
0.0003721317303     
0.000268311366186   
0.000167670472242   
7.16149232706e-05   
1.09745376456e-05   
3.08356001484e-05   
0.000107817944484   
0.000156526944327   
0.000285900126972   
0.000319697705672   
0.000419325759433   
0.000383488278362   
0.000371966124131   
0.000266322051917   
0.000166445511288   
6.98727669083e-05   
1.10730144563e-05   
3.10820367603e-05   
0.000108623737102   
0.000157450916658   
0.000287616276926   
0.00032086632027    
0.00042090652052    
0.000383315773016   
0.000371765131244   
0.000264099717627   
0.000165054584347   
6.78908206536e-05   
1.11746671228e-05   
3.1336102239e-05    
0.000109492578114   
0.000158453765722   
0.000289453980351   
0.000322126265948   
0.000422546741645   
0.000383094961695   
0.00037155760723    
0.000261712909495   
0.000163554007412   
6.5708161271e-05    
1.12721105125e-05   
3.1577457981e-05    
0.000110405068738   
0.000159514272796   
0.000291357748117   
0.000323439005378   
0.00042425464731    
0.000382875200546   
0.000371364416704   
0.000259226659789   
0.000162004106565   
6.33703885336e-05   
0.00844981132645    
0.00911931096647    
0.0236610364879     
0.0255357550748     
0.0341734147418     
0.0368810394208     
0.0379436044255     
0.0409499533348     
0.0343785896482     
0.0371024775919     
0.0247690528924     
0.0267315598041     
0.01333225265       
0.0143885902616     
0.01333225265       
0.0143885902616     
0.0247690528924     
0.0267315598041     
0.0343785896482     
0.0371024775919     
0.0379436044255     
0.0409499533348     
0.0341734147418     
0.0368810394208     
0.0236610364879     
0.0255357550748     
0.00844981132645    
0.00911931096647    
0.0188836438548     
0.0245223053383     
0.0528776964781     
0.0686669965131     
0.0763707146903     
0.0991751035949     
0.0847963688426     
0.110116619184      
0.0768292664487     
0.0997705445926     
0.0553538794217     
0.0718825863592     
0.0297949106127     
0.038691697703      
0.0297949106127     
0.038691697703      
0.0553538794217     
0.0718825863592     
0.0768292664487     
0.0997705445926     
0.0847963688426     
0.110116619184      
0.0763707146903     
0.0991751035949     
0.0528776964781     
0.0686669965131     
0.0188836438548     
0.0245223053383     
0.0164202914998     
0.0294029969535     
0.0459822704597     
0.0823380454117     
0.0664133811169     
0.118923067866      
0.0737352219393     
0.132033882895      
0.0667745403977     
0.119569735978      
0.0479716978919     
0.0859004746164     
0.0253354740505     
0.0453669470457     
0.0253354740505     
0.0453669470457     
0.0479716978919     
0.0859004746164     
0.0667745403977     
0.119569735978      
0.0737352219393     
0.132033882895      
0.0664133811169     
0.118923067866      
0.0459822704597     
0.0823380454117     
0.0164202914998     
0.0294029969535     
0.018869930716      
0.0206782348639     
0.0528446006373     
0.0579086820399     
0.0763062072848     
0.0836185130949     
0.0846238748682     
0.0927333202385     
0.0762174530912     
0.0835213035116     
0.0529950409781     
0.058073489089      
0.020592291718      
0.0225656215286     
0.020592291718      
0.0225656215286     
0.0529950409781     
0.058073489089      
0.0762174530912     
0.0835213035116     
0.0846238748682     
0.0927333202385     
0.0763062072848     
0.0836185130949     
0.0528446006373     
0.0579086820399     
0.018869930716      
0.0206782348639     
0.018695531444      
0.0209174839536     
0.0523560296256     
0.0585787039932     
0.0756007121306     
0.0845861010684     
0.083841541226      
0.0938063086856     
0.0755128337147     
0.0844877162848     
0.0525050790339     
0.0587454683529     
0.0204018908989     
0.0228267361781     
0.0204018908989     
0.0228267361781     
0.0525050790339     
0.0587454683529     
0.0755128337147     
0.0844877162848     
0.083841541226      
0.0938063086856     
0.0756007121306     
0.0845861010684     
0.0523560296256     
0.0585787039932     
0.018695531444      
0.0209174839536     
0.016473468684      
0.0186955314643     
0.0461334105448     
0.0523560296983     
0.0666153784022     
0.0756007121684     
0.0738767737424     
0.0838415412131     
0.0665378958744     
0.075512833718      
0.0462647449748     
0.052505079057      
0.0179770713599     
0.020401890905      
0.0179770713599     
0.020401890905      
0.0462647449748     
0.052505079057      
0.0665378958744     
0.075512833718      
0.0738767737424     
0.0838415412131     
0.0666153784022     
0.0756007121684     
0.0461334105448     
0.0523560296983     
0.016473468684      
0.0186955314643     
0.0130526730873     
0.014860927498      
0.0365535100025     
0.0416175416125     
0.052782232074      
0.0600945876999     
0.0585357402997     
0.0666451856486     
0.0527208393293     
0.0600246897434     
0.0366575223584     
0.0417360202661     
0.0142440406159     
0.0162173473944     
0.0142440406159     
0.0162173473944     
0.0366575223584     
0.0417360202661     
0.0527208393293     
0.0600246897434     
0.0585357402997     
0.0666451856486     
0.052782232074      
0.0600945876999     
0.0365535100025     
0.0416175416125     
0.0130526730873     
0.014860927498      
0.00921980096502    
0.0103586630413     
0.0258196368573     
0.0290090383276     
0.0372828152024     
0.041888228925      
0.0413468605387     
0.0464542402294     
0.0372395293765     
0.0418395073235     
0.0258931412357     
0.0290915828866     
0.0100612876164     
0.0113041370224     
0.0100612876164     
0.0113041370224     
0.0258931412357     
0.0290915828866     
0.0372395293765     
0.0418395073235     
0.0413468605387     
0.0464542402294     
0.0372828152024     
0.041888228925      
0.0258196368573     
0.0290090383276     
0.00921980096502    
0.0103586630413     
0.00544998728439    
0.00591947298427    
0.0152624941738     
0.0165772171837     
0.0220386732842     
0.023937026128      
0.0244409460118     
0.0265463022546     
0.0220130394024     
0.0239092349391     
0.015305944169      
0.0166244099336     
0.00594743131931    
0.00645974136807    
0.00594743131931    
0.00645974136807    
0.015305944169      
0.0166244099336     
0.0220130394024     
0.0239092349391     
0.0244409460118     
0.0265463022546     
0.0220386732842     
0.023937026128      
0.0152624941738     
0.0165772171837     
0.00544998728439    
0.00591947298427    
0.00182219024873    
0.00187793985661    
0.00510300932316    
0.00525910327388    
0.00736860293874    
0.00759401826843    
0.00817183003406    
0.00842178599932    
0.00736003228064    
0.00758518541677    
0.00511753678342    
0.00527407510598    
0.00198851853709    
0.00204934706053    
0.00198851853709    
0.00204934706053    
0.00511753678342    
0.00527407510598    
0.00736003228064    
0.00758518541677    
0.00817183003406    
0.00842178599932    
0.00736860293874    
0.00759401826843    
0.00510300932316    
0.00525910327388    
0.00182219024873    
0.00187793985661    
1.12721105125e-05   
0.000110405068738   
3.1577457981e-05    
0.000291357748117   
0.000159514272796   
0.00042425464731    
0.000323439005378   
0.000371364416704   
0.000382875200546   
0.000162004106565   
0.000259226659789   
6.33703885336e-05   
1.11746671228e-05   
0.000109492578114   
3.1336102239e-05    
0.000289453980351   
0.000158453765722   
0.000422546741645   
0.000322126265948   
0.00037155760723    
0.000383094961695   
0.000163554007412   
0.000261712909495   
6.5708161271e-05    
1.10730144563e-05   
0.000108623737102   
3.10820367603e-05   
0.000287616276926   
0.000157450916658   
0.00042090652052    
0.00032086632027    
0.000371765131244   
0.000383315773016   
0.000165054584347   
0.000264099717627   
6.78908206536e-05   
1.09745376456e-05   
0.000107817944484   
3.08356001484e-05   
0.000285900126972   
0.000156526944327   
0.000419325759433   
0.000319697705672   
0.000371966124131   
0.000383488278362   
0.000166445511288   
0.000266322051917   
6.98727669083e-05   
1.08899883827e-05   
0.00010704552238    
3.06259204112e-05   
0.000284300382721   
0.000155631482376   
0.000417932233617   
0.000318597849017   
0.0003721317303     
0.000383687110149   
0.000167670472242   
0.000268311366186   
7.16149232706e-05   
1.08145774463e-05   
0.000106391998832   
3.04387106519e-05   
0.000282906146318   
0.000154882494081   
0.000416671072852   
0.00031764620163    
0.000372274181591   
0.000383825562933   
0.00016876565721    
0.000270037474964   
7.31148379225e-05   
1.07500374958e-05   
0.000105843395953   
3.02783955325e-05   
0.00028175885109    
0.000154253883454   
0.000415638042565   
0.000316870656889   
0.000372399499821   
0.000383956821281   
0.000169653995863   
0.000271467522047   
7.43329726958e-05   
1.070147404e-05     
0.000105410161452   
3.01582048485e-05   
0.000280848528938   
0.000153754967737   
0.000414837920994   
0.00031624880817    
0.000372504165467   
0.000384058110203   
0.000170343310701   
0.000272572728258   
7.52625599845e-05   
1.06680166835e-05   
0.000105114923659   
3.00752531646e-05   
0.00028023580404    
0.000153415715529   
0.000414292526762   
0.000315833548977   
0.00037256292433    
0.000384125615188   
0.000170812248422   
0.000273314853574   
7.58892564397e-05   
1.06500451173e-05   
0.00010496838812    
3.00304455817e-05   
0.000279925709986   
0.000153248330825   
0.000414012189559   
0.000315624138971   
0.000372597605612   
0.000384157468976   
0.000171044528608   
0.00027369264112    
7.6202666825e-05    
1.06500451173e-05   
3.00304455817e-05   
0.00010496838812    
0.000153248330825   
0.000279925709986   
0.000315624138971   
0.000414012189559   
0.000384157468976   
0.000372597605612   
0.00027369264112    
0.000171044528608   
7.6202666825e-05    
1.06680166835e-05   
3.00752531646e-05   
0.000105114923659   
0.000153415715529   
0.00028023580404    
0.000315833548977   
0.000414292526762   
0.000384125615188   
0.00037256292433    
0.000273314853574   
0.000170812248422   
7.58892564397e-05   
1.070147404e-05     
3.01582048485e-05   
0.000105410161452   
0.000153754967737   
0.000280848528938   