# vtk DataFile Version 3.0
PyPan mesh file. Generated by PyPan, USU AeroLab (c) 2020.
ASCII
DATASET POLYDATA
POINTS 2062 float
-4.79848623276      -3.0                0.0                 
-4.79848623276      3.0                 0.0                 
-4.7903547287       -2.98817205429      0.0                 
-4.7903547287       2.98817205429       0.0                 
-4.78821754456      -3.0006570816       0.0                 
-4.78821754456      3.0006570816        0.0                 
-4.78820943832      -3.00064897537      -0.000102786187199  
-4.78820943832      -3.00064897537      0.000102786187199   
-4.78820943832      3.00064897537       -0.000102786187199  
-4.78820943832      3.00064897537       0.000102786187199   
-4.78818511963      -3.0006248951       -0.000203041432542  
-4.78818511963      -3.0006248951       0.000203041432542   
-4.78818511963      3.0006248951        -0.000203041432542  
-4.78818511963      3.0006248951        0.000203041432542   
-4.78814554214      -3.00058555603      -0.000298297120025  
-4.78814554214      -3.00058555603      0.000298297120025   
-4.78814554214      3.00058555603       -0.000298297120025  
-4.78814554214      3.00058555603       0.000298297120025   
-4.78809165955      -3.00053167343      -0.000386207742849  
-4.78809165955      -3.00053167343      0.000386207742849   
-4.78809165955      3.00053167343       -0.000386207742849  
-4.78809165955      3.00053167343       0.000386207742849   
-4.78802490234      -3.00046467781      -0.000464608659968  
-4.78802490234      -3.00046467781      0.000464608659968   
-4.78802490234      3.00046467781       -0.000464608659968  
-4.78802490234      3.00046467781       0.000464608659968   
-4.78794622421      -3.0003862381       -0.000531569356099  
-4.78794622421      -3.0003862381       0.000531569356099   
-4.78794622421      3.0003862381        -0.000531569356099  
-4.78794622421      3.0003862381        0.000531569356099   
-4.78785848618      -3.00029826164      -0.000585441070143  
-4.78785848618      -3.00029826164      0.000585441070143   
-4.78785848618      3.00029826164       -0.000585441070143  
-4.78785848618      3.00029826164       0.000585441070143   
-4.78776311874      -3.00020313263      -0.000624897249509  
-4.78776311874      -3.00020313263      0.000624897249509   
-4.78776311874      3.00020313263       -0.000624897249509  
-4.78776311874      3.00020313263       0.000624897249509   
-4.78766298294      -3.00010275841      -0.000648966408335  
-4.78766298294      -3.00010275841      0.000648966408335   
-4.78766298294      3.00010275841       -0.000648966408335  
-4.78766298294      3.00010275841       0.000648966408335   
-4.78756046295      -3.0                -0.000657055876218  
-4.78756046295      -3.0                0.000657055876218   
-4.78756046295      3.0                 -0.000657055876218  
-4.78756046295      3.0                 0.000657055876218   
-4.77937459946      -2.98817205429      -0.00066029408481   
-4.77937459946      -2.98817205429      0.00066029408481    
-4.77937459946      2.98817205429       -0.00066029408481   
-4.77937459946      2.98817205429       0.00066029408481    
-4.76608800888      -2.95287466049      0.0                 
-4.76608800888      2.95287466049       0.0                 
-4.75780582428      -3.00254654884      0.0                 
-4.75780582428      3.00254654884       0.0                 
-4.75777435303      -3.00251531601      -0.000398371019401  
-4.75777435303      -3.00251531601      0.000398371019401   
-4.75777435303      3.00251531601       -0.000398371019401  
-4.75777435303      3.00251531601       0.000398371019401   
-4.75768089294      -3.00242185593      -0.000786932825577  
-4.75768089294      -3.00242185593      0.000786932825577   
-4.75768089294      3.00242185593       -0.000786932825577  
-4.75768089294      3.00242185593       0.000786932825577   
-4.75752830505      -3.00226902962      -0.0011561177671    
-4.75752830505      -3.00226902962      0.0011561177671     
-4.75752830505      3.00226902962       -0.0011561177671    
-4.75752830505      3.00226902962       0.0011561177671     
-4.75731945038      -3.00206017494      -0.0014968351461    
-4.75731945038      -3.00206017494      0.0014968351461     
-4.75731945038      3.00206017494       -0.0014968351461    
-4.75731945038      3.00206017494       0.0014968351461     
-4.75706005096      -3.00180077553      -0.00180069555063   
-4.75706005096      -3.00180077553      0.00180069555063    
-4.75706005096      3.00180077553       -0.00180069555063   
-4.75706005096      3.00180077553       0.00180069555063    
-4.75675582886      -3.00149679184      -0.00206021685153   
-4.75675582886      -3.00149679184      0.00206021685153    
-4.75675582886      3.00149679184       -0.00206021685153   
-4.75675582886      3.00149679184       0.00206021685153    
-4.75641536713      -3.00115609169      -0.00226900866255   
-4.75641536713      -3.00115609169      0.00226900866255    
-4.75641536713      3.00115609169       -0.00226900866255   
-4.75641536713      3.00115609169       0.00226900866255    
-4.75604629517      -3.00078701973      -0.00242193019949   
-4.75604629517      -3.00078701973      0.00242193019949    
-4.75604629517      3.00078701973       -0.00242193019949   
-4.75604629517      3.00078701973       0.00242193019949    
-4.75565767288      -3.00039839745      -0.00251521565951   
-4.75565767288      -3.00039839745      0.00251521565951    
-4.75565767288      3.00039839745       -0.00251521565951   
-4.75565767288      3.00039839745       0.00251521565951    
-4.75525903702      -3.0                -0.00254656816833   
-4.75525903702      -3.0                0.00254656816833    
-4.75525903702      3.0                 -0.00254656816833   
-4.75525903702      3.0                 0.00254656816833    
-4.75494718552      -2.95287466049      -0.000669957487844  
-4.75494718552      -2.95287466049      0.000669957487844   
-4.75494718552      2.95287466049       -0.000669957487844  
-4.75494718552      2.95287466049       0.000669957487844   
-4.74691438675      -2.98817205429      -0.00255911843851   
-4.74691438675      -2.98817205429      0.00255911843851    
-4.74691438675      2.98817205429       -0.00255911843851   
-4.74691438675      2.98817205429       0.00255911843851    
-4.7260684967       -2.8946647644       0.0                 
-4.7260684967       2.8946647644        0.0                 
-4.72201156616      -2.95287466049      -0.00259657134302   
-4.72201156616      -2.95287466049      0.00259657134302    
-4.72201156616      2.95287466049       -0.00259657134302   
-4.72201156616      2.95287466049       0.00259657134302    
-4.71466255188      -2.8946647644       -0.000685893872287  
-4.71466255188      -2.8946647644       0.000685893872287   
-4.71466255188      2.8946647644        -0.000685893872287  
-4.71466255188      2.8946647644        0.000685893872287   
-4.70844125748      -3.0054461956       0.0                 
-4.70844125748      3.0054461956        0.0                 
-4.70837402344      -3.00537919998      -0.000851977674756  
-4.70837402344      -3.00537919998      0.000851977674756   
-4.70837402344      3.00537919998       -0.000851977674756  
-4.70837402344      3.00537919998       0.000851977674756   
-4.70817470551      -3.00517964363      -0.00168297684286   
-4.70817470551      -3.00517964363      0.00168297684286    
-4.70817470551      3.00517964363       -0.00168297684286   
-4.70817470551      3.00517964363       0.00168297684286    
-4.70784759521      -3.00485253334      -0.00247253547423   
-4.70784759521      -3.00485253334      0.00247253547423    
-4.70784759521      3.00485253334       -0.00247253547423   
-4.70784759521      3.00485253334       0.00247253547423    
-4.70740127563      -3.00440597534      -0.00320121203549   
-4.70740127563      -3.00440597534      0.00320121203549    
-4.70740127563      3.00440597534       -0.00320121203549   
-4.70740127563      3.00440597534       0.00320121203549    
-4.70684623718      -3.00385117531      -0.00385106424801   
-4.70684623718      -3.00385117531      0.00385106424801    
-4.70684623718      3.00385117531       -0.00385106424801   
-4.70684623718      3.00385117531       0.00385106424801    
-4.70619630814      -3.00320124626      -0.00440609036013   
-4.70619630814      -3.00320124626      0.00440609036013    
-4.70619630814      3.00320124626       -0.00440609036013   
-4.70619630814      3.00320124626       0.00440609036013    
-4.70546770096      -3.00247263908      -0.00485262414441   
-4.70546770096      -3.00247263908      0.00485262414441    
-4.70546770096      3.00247263908       -0.00485262414441   
-4.70546770096      3.00247263908       0.00485262414441    
-4.70467805862      -3.00168299675      -0.00517967017367   
-4.70467805862      -3.00168299675      0.00517967017367    
-4.70467805862      3.00168299675       -0.00517967017367   
-4.70467805862      3.00168299675       0.00517967017367    
-4.70384693146      -3.00085186958      -0.00537917530164   
-4.70384693146      -3.00085186958      0.00537917530164    
-4.70384693146      3.00085186958       -0.00537917530164   
-4.70384693146      3.00085186958       0.00537917530164    
-4.70299482346      -3.0                -0.00544622726738   
-4.70299482346      -3.0                0.00544622726738    
-4.70299482346      3.0                 -0.00544622726738   
-4.70299482346      3.0                 0.00544622726738    
-4.69439268112      -2.98817205429      -0.00547306798398   
-4.69439268112      -2.98817205429      0.00547306798398    
-4.69439268112      2.98817205429       -0.00547306798398   
-4.69439268112      2.98817205429       0.00547306798398    
-4.68094396591      -2.8946647644       -0.00265833619051   
-4.68094396591      -2.8946647644       0.00265833619051    
-4.68094396591      2.8946647644        -0.00265833619051   
[...]
CELL_DATA 4120
SCALARS panel_area float 1
LOOKUP_TABLE default
0.000324255485144   
0.000320420557063   
0.000958415096544   
0.000947077963053   
0.001550271584      
0.00153193526565    
0.00207398717407    
0.00204945678798    
0.00250688214433    
0.00247723145261    
0.00283031533869    
0.00279683804281    
0.00303052796759    
0.00299468334484    
0.00309951388234    
0.00306285278718    
0.00303590609172    
0.00299999736628    
0.00284584101946    
0.00281218069688    
0.00254351654827    
0.0025134317118     
0.00215139782746    
0.00212595126277    
0.00170264318026    
0.00168250412179    
0.00125695754668    
0.00124209133824    
0.000958271732781   
0.000946936193492   
0.000958271732781   
0.000946936193492   
0.00125695754668    
0.00124209133824    
0.00170264318026    
0.00168250412179    
0.00215139782746    
0.00212595126277    
0.00254351654827    
0.0025134317118     
0.00284584101946    
0.00281218069688    
0.00303590609172    
0.00299999736628    
0.00309951388234    
0.00306285278718    
0.00303052796759    
0.00299468334484    
0.00283031533869    
0.00279683804281    
0.00250688214433    
0.00247723145261    
0.00207398717407    
0.00204945678798    
0.001550271584      
0.00153193526565    
0.000958415096544   
0.000947077963053   
0.000324255485144   
0.000320420557063   
0.000956208466539   
0.00092205288542    
0.00282629810554    
0.00272534533345    
0.00457164657025    
0.00440834814459    
0.00611604943928    
0.00589758381223    
0.00739262716401    
0.00712856184419    
0.00834640649772    
0.00804827643681    
0.00893682232961    
0.00861760121217    
0.00914025564147    
0.00881376745417    
0.0089526810325     
0.00863289345225    
0.00839219269841    
0.00809242479127    
0.00750065736546    
0.00723273560198    
0.00634432622719    
0.00611770865265    
0.00502097794781    
0.00484162956043    
0.00370668529701    
0.00357428034811    
0.00282587605231    
0.0027249388587     
0.00282587605231    
0.0027249388587     
0.00370668529701    
0.00357428034811    
0.00502097794781    
0.00484162956043    
0.00634432622719    
0.00611770865265    
0.00750065736546    
0.00723273560198    
0.00839219269841    
0.00809242479127    
0.0089526810325     
0.00863289345225    
0.00914025564147    
0.00881376745417    
0.00893682232961    
0.00861760121217    
0.00834640649772    
0.00804827643681    
0.00739262716401    
0.00712856184419    
0.00611604943928    
0.00589758381223    
0.00457164657025    
0.00440834814459    
0.00282629810554    
0.00272534533345    
0.000956208466539   
0.00092205288542    
0.00152058933736    
0.00142769273837    
0.00449446124516    
0.00421989720039    
0.00726995938058    
0.00682585072088    
0.00972590957047    
0.00913176729071    
0.0117559579886     
0.0110377953456     
0.0132726912391     
0.0124618813022     
0.0142115843405     
0.0133434114054     
0.0145350888179     
0.013647159635      
0.0142368032723     
0.0133670930794     
0.013345497707      
0.0125302369936     
0.0119277544686     
0.0111991014539     
0.0100889252412     
0.0094726034799     
0.00798449924361    
0.00749673497269    
0.00589446945837    
0.00553438575393    
0.0044937881568     
0.00421926774578    
0.0044937881568     
0.00421926774578    
0.00589446945837    
0.00553438575393    
0.00798449924361    
0.00749673497269    
0.0100889252412     
0.0094726034799     
0.0119277544686     
0.0111991014539     
0.013345497707      
0.0125302369936     
0.0142368032723     
0.0133670930794     
0.0145350888179     
0.013647159635      
0.0142115843405     
0.0133434114054     
0.0132726912391     
0.0124618813022     
0.0117559579886     
0.0110377953456     
0.00972590957047    
0.00913176729071    
0.00726995938058    
0.00682585072088    
0.00449446124516    
0.00421989720039    
0.00152058933736    
0.00142769273837    
0.00196714725354    
0.00179080617053    
0.00581438785226    
0.00529313952551    
0.00940500233182    
0.00856185744276    
0.012582210694      
0.0114542482565     
0.015208432592      
0.0138450304619     
0.0171706104147     
0.015631304794      
0.018385227051      
0.0167370304777     
0.0188037469042     
0.0171180321398     
0.0184178569417     
0.0167667377413     
0.0172647944366     
0.0157170438062     
0.0154306882455     
0.0140473605558     
0.0130518322171     
0.0118817647232     
0.0103293804337     
0.00940337479065    
0.00762555609978    
0.00694194200989    
0.00581352220504    
0.00529235115898    
0.00581352220504    
0.00529235115898    
0.00762555609978    
0.00694194200989    
0.0103293804337     
0.00940337479065    
0.0130518322171     
0.0118817647232     
0.0154306882455     
0.0140473605558     
0.0172647944366     
0.0157170438062     
0.0184178569417     
0.0167667377413     
0.0188037469042     
0.0171180321398     
0.018385227051      
0.0167370304777     
0.0171706104147     
0.015631304794      
0.015208432592      
0.0138450304619     
0.012582210694      
0.0114542482565     
0.00940500233182    
0.00856185744276    
0.00581438785226    
0.00529313952551    
0.00196714725354    
0.00179080617053    
0.00225366037446    
0.00197436950618    
0.00666121160191    
0.00583570318945    
0.0107747669267     
0.00943947347138    
0.0144147290057     
0.0126283307508     
0.0174234360476     
0.0152641885054     
0.0196713931425     
0.0172335391026     
0.0210629062156     
0.0184526253735     
0.0215423821029     
0.0188726769532     
0.0211002915798     
0.0184853724988     
0.0197792923253     
0.0173280772643     
0.0176780606025     
0.0154872535458     
0.0149527420231     
0.013099675491      
0.0118337838201     
0.0103672454663     
0.00873616607787    
0.00765350870099    
0.00666021973958    
0.0058348314183     
0.00666021973958    
0.0058348314183     
0.00873616607787    
0.00765350870099    
0.0118337838201     
0.0103672454663     
0.0149527420231     
0.013099675491      
0.0176780606025     
0.0154872535458     
0.0197792923253     
0.0173280772643     
0.0211002915798     
0.0184853724988     
0.0215423821029     
0.0188726769532     
0.0210629062156     
0.0184526253735     
0.0196713931425     
0.0172335391026     
0.0174234360476     
0.0152641885054     
0.0144147290057     
0.0126283307508     
0.0107747669267     
0.00943947347138    
0.00666121160191    
0.00583570318945    
0.00225366037446    
0.00197436950618    
0.00234872693623    
0.00195348708722    
0.00694220267957    
0.00577395631866    
0.0112292787235     
0.00933960471501    
0.0150227707753     
0.0124947321788     
0.0181584098547     
0.0151027034774     
0.0205011662855     
0.0170512223488     
0.0219514019212     
0.0182574008187     
0.0224510987669     
0.0186730142675     
0.0219903580707     
0.018289801336      
0.0206136297864     
0.017144757522      
0.0184237699121     
0.0153234071567     
0.0155834863337     
0.0129610843269     
0.0123329641361     
0.0102575642157     
0.00910467889158    
0.0075725380869     
0.00694116405217    
0.00577310082508    
0.00694116405217    
0.00577310082508    
0.00910467889158    
0.0075725380869     
0.0123329641361     
0.0102575642157     
0.0155834863337     
0.0129610843269     
0.0184237699121     
0.0153234071567     
0.0206136297864     
0.017144757522      
0.0219903580707     
0.018289801336      
0.0224510987669     
0.0186730142675     
0.0219514019212     
0.0182574008187     
0.0205011662855     
0.0170512223488     
0.0181584098547     
0.0151027034774     
0.0150227707753     
0.0124947321788     
0.0112292787235     
0.00933960471501    
0.00694220267957    
0.00577395631866    
0.00234872693623    
0.00195348708722    
0.00223403951232    
0.00171711067358    
0.00660319010461    
0.00507531351249    
0.0106809235096     
0.0082094964758     
0.0142891784238     
0.0109828506603     
0.0172716967227     
0.0132752699595     
0.0195000544028     
0.0149879934313     
0.0208794596276     
0.0160482422253     
0.0213547619953     
0.0164135592935     
0.0209165134527     
0.0160767141226     
0.0196070228003     
0.0150702271454     
0.0175240970787     
0.0134692601218     
0.0148225064645     
0.0113927802841     
0.0117307172661     
0.00901638716453    
0.00866007812606    
0.00665625368545    
0.00660221325818    
0.00507454976738    
0.00660221325818    
0.00507454976738    
0.00866007812606    
0.00665625368545    
0.0117307172661     
0.00901638716453    
0.0148225064645     
0.0113927802841     
0.0175240970787     
0.0134692601218     
0.0196070228003     
0.0150702271454     
0.0209165134527     
0.0160767141226     
0.0213547619953     
0.0164135592935     
0.0208794596276     
0.0160482422253     
0.0195000544028     
0.0149879934313     
0.0172716967227     
0.0132752699595     
0.0142891784238     
0.0109828506603     
0.0106809235096     
0.0082094964758     
0.00660319010461    
0.00507531351249    
0.00223403951232    
0.00171711067358    
0.00190224062732    
0.00163468314957    
0.00562301853775    
0.00483210755993    
0.00909664172878    
0.00781716717534    
0.012171057941      
0.0104591490255     
0.0147120924699     
0.0126427557933     
0.0166090520901     
0.0142729319252     
0.0177796900523     
0.0152788755286     
0.0181741106953     
0.015617834933      
0.0177786134483     
0.0152779763091     
0.0166182520558     
0.0142808222839     
0.014757192021      
0.0126815196734     
0.0122974132438     
0.0105677227651     
0.00938355811889    
0.00806371966576    
0.00625438911523    
0.00537467700099    
0.00361338383316    
0.00310514488815    
0.00361338383316    
0.00310514488815    
0.00625438911523    
0.00537467700099    
0.00938355811889    
0.00806371966576    
0.0122974132438     
0.0105677227651     
0.014757192021      
0.0126815196734     
0.0166182520558     
0.0142808222839     
0.0177786134483     
0.0152779763091     
0.0181741106953     
0.015617834933      
0.0177796900523     
0.0152788755286     
0.0166090520901     
0.0142729319252     
0.0147120924699     
0.0126427557933     
0.012171057941      
0.0104591490255     
0.00909664172878    
0.00781716717534    
0.00562301853775    
0.00483210755993    
0.00190224062732    
0.00163468314957    
0.00177214100339    
0.00170993128961    
0.00523819438924    
0.00505437315203    
0.00847342996894    
0.00817607336594    
0.0113360418235     
0.0109382078247     
0.0137011372258     
0.0132203077533     
0.0154657779616     
0.0149230216181     
0.0165531239008     
0.0159722285572     
0.0169163166845     
0.0163226753661     
0.0165411272819     
0.0159606339592     
0.0154477299255     
0.0149056069537     
0.0136899565173     
0.0132095194114     
0.0113529962553     
0.0109545865884     
0.00855310926847    
0.00825294659825    
0.00545774385533    
0.00526621771391    
0.00251139828553    
0.002423264549      
0.00251139828553    
0.002423264549      
0.00545774385533    
0.00526621771391    
0.00855310926847    
0.00825294659825    
0.0113529962553     
0.0109545865884     
0.0136899565173     
0.0132095194114     
0.0154477299255     
0.0149056069537     
0.0165411272819     
0.0159606339592     
0.0169163166845     
0.0163226753661     
0.0165531239008     
0.0159722285572     
0.0154657779616     
0.0149230216181     
0.0137011372258     
0.0132203077533     
0.0113360418235     
0.0109382078247     
0.00847342996894    
0.00817607336594    
0.00523819438924    
0.00505437315203    
0.00177214100339    
0.00170993128961    
0.00181426637157    
0.00174426222043    
0.00536277642563    
0.00515582909504    
0.00867495380923    
0.00834018064011    
0.0116056257457     
0.0111577863196     
0.0140269728077     
0.0134856874788     
0.0158335813422     
0.0152225881953     
0.0169468078764     
0.0162928335534     
0.0173186379595     
0.0166503191375     
0.0169345058259     
0.0162810271048     
0.0158151041132     
0.0152048031105     
0.0140155261937     
0.0134746825843     
0.0116230038517     
0.011174483794      
0.00875651763955    
0.00841860704818    
0.00558754718975    
0.0053719261762     
0.00257112529022    
0.00247191317802    
0.00257112529022    
0.00247191317802    
0.00558754718975    
0.0053719261762     
0.00875651763955    
0.00841860704818    
0.0116230038517     
0.011174483794      
0.0140155261937     
0.0134746825843     
0.0158151041132     
0.0152048031105     
0.0169345058259     
0.0162810271048     
0.0173186379595     
0.0166503191375     
0.0169468078764     
0.0162928335534     
0.0158335813422     
0.0152225881953     
0.0140269728077     
0.0134856874788     
0.0116056257457     
0.0111577863196     
0.00867495380923    
0.00834018064011    
0.00536277642563    
0.00515582909504    
0.00181426637157    
0.00174426222043    
0.00181706380114    
0.00174108476068    
0.00537102181517    
0.00514643158774    
0.00868828101083    
0.00832501667405    
0.0116234872162     
0.0111374518867     
0.0140485497378     
0.0134611448007     
0.0158579448001     
0.0151948606358     
0.0169728597865     
0.0162631820074     
0.0173452660158     
0.0166199816463     
0.0169605605587     
0.0162513762187     
0.0158394173927     
0.0151771287622     
0.0140370855283     
0.0134501599523     
0.011640881636      
0.0111541298536     
0.00876998075728    
0.00840328937232    
0.00559613817072    
0.00536214591314    
0.00257508531545    
0.00246740353956    
0.00257508531545    
0.00246740353956    
0.00559613817072    
0.00536214591314    
0.00876998075728    
0.00840328937232    
0.011640881636      
0.0111541298536     
0.0140370855283     
0.0134501599523     
0.0158394173927     
0.0151771287622     
0.0169605605587     
0.0162513762187     
0.0173452660158     
0.0166199816463     
0.0169728597865     
0.0162631820074     
0.0158579448001     
0.0151948606358     
0.0140485497378     
0.0134611448007     
0.0116234872162     
0.0111374518867     
0.00868828101083    
0.00832501667405    
0.00537102181517    
0.00514643158774    
0.00181706380114    
0.00174108476068    
0.00178338413227    
0.0017036605199     
0.00527146329454    
0.00503585524512    
0.00852727159561    
0.0081460940911     
0.0114080344625     
0.0108981370825     
0.0137881811023     
0.0131718672904     
0.0155640172854     
0.0148683394837     
0.0166582933543     
0.0159136922263     
0.0170237613772     
0.0162628470284     
0.0166462007419     
0.0159021401219     
0.0155458546229     
0.0148509886626     
0.0137769293743     
0.013161118473      
0.0114251175906     
0.0109144460229     
0.0086074458707     
0.00822269538598    
0.00549241835551    
0.0052469232458     
0.00252734903995    
0.00241437400335    
0.00252734903995    
0.00241437400335    
0.00549241835551    
0.0052469232458     
0.0086074458707     
0.00822269538598    
0.0114251175906     
0.0109144460229     
0.0137769293743     
0.013161118473      
0.0155458546229     
0.0148509886626     
0.0166462007419     
0.0159021401219     
0.0170237613772     
0.0162628470284     
0.0166582933543     
0.0159136922263     
0.0155640172854     
0.0148683394837     
0.0137881811023     
0.0131718672904     
0.0114080344625     
0.0108981370825     
0.00852727159561    
0.0081460940911     
0.00527146329454    
0.00503585524512    
0.00178338413227    
0.0017036605199     
0.00171720208235    
0.00163623671583    
0.00507588278923    
0.00483648858551    
0.00821084340393    
0.00782362010546    
0.0109847610243     
0.0104666934631     
0.0132765640201     
0.012650425773      
0.0149865206316     
0.0142797373928     
0.0160401823752     
0.0152837069595     
0.0163921124394     
0.0156190392658     
0.0160285384586     
0.0152726121895     
0.0149690319081     
0.0142630510025     
0.0132657297657     
0.0126401024996     
0.0110011996367     
0.0104823567877     
0.00828805359847    
0.00789718891007    
0.00528862848591    
0.00503920112023    
0.00243356425009    
0.00231880897476    
0.00243356425009    
0.00231880897476    
0.00528862848591    
0.00503920112023    
0.00828805359847    
0.00789718891007    
0.0110011996367     
0.0104823567877     
0.0132657297657     
0.0126401024996     
0.0149690319081     
0.0142630510025     
0.0160285384586     
0.0152726121895     
0.0163921124394     
0.0156190392658     
0.0160401823752     
0.0152837069595     
0.0149865206316     
0.0142797373928     
0.0132765640201     
0.012650425773      
0.0109847610243     
0.0104666934631     
0.00821084340393    
0.00782362010546    
0.00507588278923    
0.00483648858551    
0.00171720208235    
0.00163623671583    
0.00162333362477    
0.00154363223643    
0.00479834885728    
0.00456271856858    
0.0077619243595     
0.00738076910785    
0.0103841549039     
0.0098742352705     
0.012550666665      
0.0119343528498     
0.0141671298116     
0.0134714520097     
0.0151631822465     
0.0144185811074     
0.0154958701791     
0.0147349335657     
0.0151521749606     
0.0144081143407     
0.0141505750007     
0.0134557313198     
0.0125404248056     
0.0119246139262     
0.0103996947031     
0.00988901196117    
0.00783491299473    
0.00745017362126    
0.00499946298364    
0.00475395705497    
0.00230052291715    
0.00218756436371    
0.00230052291715    
0.00218756436371    
0.00499946298364    
0.00475395705497    
0.00783491299473    
0.00745017362126    
0.0103996947031     
0.00988901196117    
0.0125404248056     
0.0119246139262     
0.0141505750007     
0.0134557313198     
0.0151521749606     
0.0144081143407     
0.0154958701791     
0.0147349335657     
0.0151631822465     
0.0144185811074     
0.0141671298116     
0.0134714520097     
0.012550666665      
0.0119343528498     
0.0103841549039     
0.0098742352705     
0.0077619243595     
0.00738076910785    
0.00479834885728    
0.00456271856858    
0.00162333362477    
0.00154363223643    
0.00150701944591    
0.00143104040621    
0.00445449728801    
0.0042299287702     
0.00720570763889    
0.00684239985944    
0.00964003227819    
0.00915401867525    
0.0116512867498     
0.0110638818148     
0.0131519280747     
0.0124888439122     
0.0140765925946     
0.0133669148193     
0.0143854416136     
0.0136601789857     
0.0140663740846     
0.0133571897395     
0.0131365802546     
0.0124742698717     
0.0116417788164     
0.011054853228      
0.00965445846555    
0.00916771757977    
0.0072734659481     
0.00690676374266    
0.00464119967967    
0.00440721796669    
0.00213567844079    
0.00202798876125    
0.00213567844079    
0.00202798876125    
0.00464119967967    
0.00440721796669    
0.0072734659481     
0.00690676374266    
0.00965445846555    
0.00916771757977    
0.0116417788164     
0.011054853228      
0.0131365802546     
0.0124742698717     
0.0140663740846     
0.0133571897395     
0.0143854416136     
0.0136601789857     
0.0140765925946     
0.0133669148193     
0.0131519280747     
0.0124888439122     
0.0116512867498     
0.0110638818148     
0.00964003227819    
0.00915401867525    
0.00720570763889    
0.00684239985944    
0.00445449728801    
0.0042299287702     
0.00150701944591    
0.00143104040621    
0.001373705518      
0.00130365968714    
0.00406045590967    
0.00385352934912    
0.00656825787785    
0.00623350544604    
0.00878726125726    
0.00833940081831    
0.010620605385      
0.0100793198711     
0.0119884761359     
0.0113774619098     
0.0128313669748     
0.012177392431      
0.0131128814562     
0.0124445832805     
0.0128220315294     
0.0121685525907     
0.011974486003      
0.0113641847941     
0.0106119385393     
0.0100710947452     
0.00880041134214    
0.00835188067377    
0.00663004301484    
0.00629214269592    
0.00423064202156    
0.00401502094683    
0.00194673725852    
0.00184752504134    
0.00194673725852    
0.00184752504134    
0.00423064202156    
0.00401502094683    
0.00663004301484    
0.00629214269592    
0.00880041134214    
0.00835188067377    
0.0106119385393     
0.0100710947452     
0.011974486003      
0.0113641847941     
0.0128220315294     
0.0121685525907     
0.0131128814562     
0.0124445832805     
0.0128313669748     
0.012177392431      
0.0119884761359     