# vtk DataFile Version 3.0
PyPan mesh file. Generated by PyPan, USU AeroLab (c) 2020.
ASCII
DATASET POLYDATA
POINTS 962 float
-4.79848623276      -3.0                0.0                 
-4.79848623276      3.0                 0.0                 
-4.7759513855       -2.96722149849      0.0                 
-4.7759513855       2.96722149849       0.0                 
-4.77547359467      -3.00145888329      0.0                 
-4.77547359467      3.00145888329       0.0                 
-4.77545547485      -3.00144100189      -0.000228222386795  
-4.77545547485      -3.00144100189      0.000228222386795   
-4.77545547485      3.00144100189       -0.000228222386795  
-4.77545547485      3.00144100189       0.000228222386795   
-4.77540206909      -3.00138759613      -0.000450825173175  
-4.77540206909      -3.00138759613      0.000450825173175   
-4.77540206909      3.00138759613       -0.000450825173175  
-4.77540206909      3.00138759613       0.000450825173175   
-4.77531480789      -3.00129985809      -0.00066232716199   
-4.77531480789      -3.00129985809      0.00066232716199    
-4.77531480789      3.00129985809       -0.00066232716199   
-4.77531480789      3.00129985809       0.00066232716199    
-4.77519512177      -3.00118017197      -0.000857520441059  
-4.77519512177      -3.00118017197      0.000857520441059   
-4.77519512177      3.00118017197       -0.000857520441059  
-4.77519512177      3.00118017197       0.000857520441059   
-4.77504634857      -3.00103163719      -0.00103159877472   
-4.77504634857      -3.00103163719      0.00103159877472    
-4.77504634857      3.00103163719       -0.00103159877472   
-4.77504634857      3.00103163719       0.00103159877472    
-4.77487230301      -3.00085759163      -0.0011802756926    
-4.77487230301      -3.00085759163      0.0011802756926     
-4.77487230301      3.00085759163       -0.0011802756926    
-4.77487230301      3.00085759163       0.0011802756926     
-4.77467679977      -3.00066232681      -0.00129989022389   
-4.77467679977      -3.00066232681      0.00129989022389    
-4.77467679977      3.00066232681       -0.00129989022389   
-4.77467679977      3.00066232681       0.00129989022389    
-4.77446556091      -3.00045084953      -0.00138749729376   
-4.77446556091      -3.00045084953      0.00138749729376    
-4.77446556091      3.00045084953       -0.00138749729376   
-4.77446556091      3.00045084953       0.00138749729376    
-4.77424287796      -3.00022816658      -0.00144093949348   
-4.77424287796      -3.00022816658      0.00144093949348    
-4.77424287796      3.00022816658       -0.00144093949348   
-4.77424287796      3.00022816658       0.00144093949348    
-4.77401447296      -3.0                -0.00145890098065   
-4.77401447296      -3.0                0.00145890098065    
-4.77401447296      3.0                 -0.00145890098065   
-4.77401447296      3.0                 0.00145890098065    
-4.75114536285      -2.96722149849      -0.00147882627789   
-4.75114536285      -2.96722149849      0.00147882627789    
-4.75114536285      2.96722149849       -0.00147882627789   
-4.75114536285      2.96722149849       0.00147882627789    
-4.70933008194      -2.87031817436      0.0                 
-4.70933008194      2.87031817436       0.0                 
-4.70844125748      -3.0054461956       0.0                 
-4.70844125748      3.0054461956        0.0                 
-4.70837402344      -3.00537919998      -0.000851977674756  
-4.70837402344      -3.00537919998      0.000851977674756   
-4.70837402344      3.00537919998       -0.000851977674756  
-4.70837402344      3.00537919998       0.000851977674756   
-4.70817470551      -3.00517964363      -0.00168297684286   
-4.70817470551      -3.00517964363      0.00168297684286    
-4.70817470551      3.00517964363       -0.00168297684286   
-4.70817470551      3.00517964363       0.00168297684286    
-4.70784759521      -3.00485253334      -0.00247253547423   
-4.70784759521      -3.00485253334      0.00247253547423    
-4.70784759521      3.00485253334       -0.00247253547423   
-4.70784759521      3.00485253334       0.00247253547423    
-4.70740127563      -3.00440597534      -0.00320121203549   
-4.70740127563      -3.00440597534      0.00320121203549    
-4.70740127563      3.00440597534       -0.00320121203549   
-4.70740127563      3.00440597534       0.00320121203549    
-4.70684623718      -3.00385117531      -0.00385106424801   
-4.70684623718      -3.00385117531      0.00385106424801    
-4.70684623718      3.00385117531       -0.00385106424801   
-4.70684623718      3.00385117531       0.00385106424801    
-4.70619630814      -3.00320124626      -0.00440609036013   
-4.70619630814      -3.00320124626      0.00440609036013    
-4.70619630814      3.00320124626       -0.00440609036013   
-4.70619630814      3.00320124626       0.00440609036013    
-4.70546770096      -3.00247263908      -0.00485262414441   
-4.70546770096      -3.00247263908      0.00485262414441    
-4.70546770096      3.00247263908       -0.00485262414441   
-4.70546770096      3.00247263908       0.00485262414441    
-4.70467805862      -3.00168299675      -0.00517967017367   
-4.70467805862      -3.00168299675      0.00517967017367    
-4.70467805862      3.00168299675       -0.00517967017367   
-4.70467805862      3.00168299675       0.00517967017367    
-4.70384693146      -3.00085186958      -0.00537917530164   
-4.70384693146      -3.00085186958      0.00537917530164    
-4.70384693146      3.00085186958       -0.00537917530164   
-4.70384693146      3.00085186958       0.00537917530164    
-4.70299482346      -3.0                -0.00544622726738   
-4.70299482346      -3.0                0.00544622726738    
-4.70299482346      3.0                 -0.00544622726738   
-4.70299482346      3.0                 0.00544622726738    
-4.6835360527       -2.87031817436      -0.00153773126658   
-4.6835360527       -2.87031817436      0.00153773126658    
-4.6835360527       2.87031817436       -0.00153773126658   
-4.6835360527       2.87031817436       0.00153773126658    
-4.67915534973      -2.96722149849      -0.00552061060444   
-4.67915534973      -2.96722149849      0.00552061060444    
-4.67915534973      2.96722149849       -0.00552061060444   
-4.67915534973      2.96722149849       0.00552061060444    
-4.60867881775      -2.87031817436      -0.00574050936848   
-4.60867881775      -2.87031817436      0.00574050936848    
-4.60867881775      2.87031817436       -0.00574050936848   
-4.60867881775      2.87031817436       0.00574050936848    
-4.60338115692      -3.01100182533      0.0                 
-4.60338115692      3.01100182533       0.0                 
-4.60324573517      -3.01086640358      -0.00172108225524   
-4.60324573517      -3.01086640358      0.00172108225524    
-4.60324573517      3.01086640358       -0.00172108225524   
-4.60324573517      3.01086640358       0.00172108225524    
-4.60284233093      -3.01046347618      -0.00339978560805   
-4.60284233093      -3.01046347618      0.00339978560805    
-4.60284233093      3.01046347618       -0.00339978560805   
-4.60284233093      3.01046347618       0.00339978560805    
-4.60218191147      -3.0098028183       -0.0049947751686    
-4.60218191147      -3.0098028183       0.0049947751686     
-4.60218191147      3.0098028183        -0.0049947751686    
-4.60218191147      3.0098028183        0.0049947751686     
-4.60153532028      -2.71352553368      0.0                 
-4.60153532028      2.71352553368       0.0                 
-4.60127973557      -3.0089006424       -0.00646677659824   
-4.60127973557      -3.0089006424       0.00646677659824    
-4.60127973557      3.0089006424        -0.00646677659824   
-4.60127973557      3.0089006424        0.00646677659824    
-4.60015869141      -3.00777959824      -0.00777954468504   
-4.60015869141      -3.00777959824      0.00777954468504    
-4.60015869141      3.00777959824       -0.00777954468504   
-4.60015869141      3.00777959824       0.00777954468504    
-4.59884595871      -3.00646686554      -0.00890075415373   
-4.59884595871      -3.00646686554      0.00890075415373    
-4.59884595871      3.00646686554       -0.00890075415373   
-4.59884595871      3.00646686554       0.00890075415373    
-4.5973739624       -3.00499486923      -0.00980279780924   
-4.5973739624       -3.00499486923      0.00980279780924    
-4.5973739624       3.00499486923       -0.00980279780924   
-4.5973739624       3.00499486923       0.00980279780924    
-4.59577894211      -3.00339984894      -0.0104634640738    
-4.59577894211      -3.00339984894      0.0104634640738     
-4.59577894211      3.00339984894       -0.0104634640738    
-4.59577894211      3.00339984894       0.0104634640738     
-4.59409999847      -3.00172114372      -0.0108664855361    
-4.59409999847      -3.00172114372      0.0108664855361     
-4.59409999847      3.00172114372       -0.0108664855361    
-4.59409999847      3.00172114372       0.0108664855361     
-4.59237909317      -3.0                -0.0110019370914    
-4.59237909317      -3.0                0.0110019370914     
-4.59237909317      3.0                 -0.0110019370914    
-4.59237909317      3.0                 0.0110019370914     
-4.57414245605      -2.71352553368      -0.00163304177113   
-4.57414245605      -2.71352553368      0.00163304177113    
-4.57414245605      2.71352553368       -0.00163304177113   
-4.57414245605      2.71352553368       0.00163304177113    
-4.56702899933      -2.96722149849      -0.0111521994695    
-4.56702899933      -2.96722149849      0.0111521994695     
-4.56702899933      2.96722149849       -0.0111521994695    
-4.56702899933      2.96722149849       0.0111521994695     
-4.49464559555      -2.71352553368      -0.00609631277621   
-4.49464559555      -2.71352553368      0.00609631277621    
-4.49464559555      2.71352553368       -0.00609631277621   
[...]
CELL_DATA 1920
SCALARS panel_area float 1
LOOKUP_TABLE default
0.00201250743558    
0.00194654146455    
0.00583832073188    
0.00564694949016    
0.00908900579361    
0.00879107781506    
0.0114489567543     
0.0110736760507     
0.0126917444403     
0.0122757279602     
0.0127071188325     
0.0122905982802     
0.0115282794952     
0.0111503983212     
0.00935331011441    
0.00904672185479    
0.00657488125064    
0.00635936589166    
0.00415858709703    
0.00402227289515    
0.00415858709703    
0.00402227289515    
0.00657488125064    
0.00635936589166    
0.00935331011441    
0.00904672185479    
0.0115282794952     
0.0111503983212     
0.0127071188325     
0.0122905982802     
0.0126917444403     
0.0122757279602     
0.0114489567543     
0.0110736760507     
0.00908900579361    
0.00879107781506    
0.00583832073188    
0.00564694949016    
0.00201250743558    
0.00194654146455    
0.00575455114072    
0.00517801558208    
0.016694049448      
0.0150215179257     
0.0259890211785     
0.0233852577919     
0.0327370554976     
0.0294572269429     
0.036290675557      
0.0326548068745     
0.036334636687      
0.0326943694987     
0.0329638688284     
0.0296613122247     
0.0267447792769     
0.0240652936244     
0.0188001622458     
0.0169166270241     
0.0118910262197     
0.0106996987596     
0.0118910262197     
0.0106996987596     
0.0188001622458     
0.0169166270241     
0.0267447792769     
0.0240652936244     
0.0329638688284     
0.0296613122247     
0.036334636687      
0.0326943694987     
0.036290675557      
0.0326548068745     
0.0327370554976     
0.0294572269429     
0.0259890211785     
0.0233852577919     
0.016694049448      
0.0150215179257     
0.00575455114072    
0.00517801558208    
0.00837820489725    
0.00686881651911    
0.0243053256342     
0.0199266000361     
0.0378381404613     
0.0310213869689     
0.0476627924262     
0.0390760613965     
0.0528365853647     
0.0433177944811     
0.052900598971      
0.043370258821      
0.0479930096038     
0.0393467936896     
0.0389384620172     
0.0319234803129     
0.0273716774502     
0.0224405149482     
0.0173124756206     
0.014193538094      
0.0173124756206     
0.014193538094      
0.0273716774502     
0.0224405149482     
0.0389384620172     
0.0319234803129     
0.0479930096038     
0.0393467936896     
0.052900598971      
0.043370258821      
0.0528365853647     
0.0433177944811     
0.0476627924262     
0.0390760613965     
0.0378381404613     
0.0310213869689     
0.0243053256342     
0.0199266000361     
0.00837820489725    
0.00686881651911    
0.00919227203466    
0.00648907304172    
0.0266669996535     
0.0188249113804     
0.0415147247193     
0.0293063070737     
0.0522939846275     
0.0369156662595     
0.0579705323438     
0.0409228787491     
0.0580407431889     
0.0409724386138     
0.0526562953879     
0.0371714307641     
0.0427219613022     
0.0301585280587     
0.0300312741561     
0.0211998424328     
0.0189946614151     
0.013408820288      
0.0189946614151     
0.013408820288      
0.0300312741561     
0.0211998424328     
0.0427219613022     
0.0301585280587     
0.0526562953879     
0.0371714307641     
0.0580407431889     
0.0409724386138     
0.0579705323438     
0.0409228787491     
0.0522939846275     
0.0369156662595     
0.0415147247193     
0.0293063070737     
0.0266669996535     
0.0188249113804     
0.00919227203466    
0.00648907304172    
0.00783173261279    
0.00602505525815    
0.0227239920265     
0.0174818509707     
0.0353823715351     
0.0272201391375     
0.0445693658212     
0.034287806623      
0.0493906415782     
0.0379968842174     
0.0493898802984     
0.0379963102011     
0.0446230715536     
0.0343291231619     
0.0356911634355     
0.02745769111       
0.0237654627813     
0.0182830893344     
0.0116241220491     
0.008942584462      
0.0116241220491     
0.008942584462      
0.0237654627813     
0.0182830893344     
0.0356911634355     
0.02745769111       
0.0446230715536     
0.0343291231619     
0.0493898802984     
0.0379963102011     
0.0493906415782     
0.0379968842174     
0.0445693658212     
0.034287806623      
0.0353823715351     
0.0272201391375     
0.0227239920265     
0.0174818509707     
0.00783173261279    
0.00602505525815    
0.00680920897616    
0.00638970456889    
0.0197552041126     
0.0185381384826     
0.0307550389053     
0.0288602967428     
0.0387330326285     
0.0363468151602     
0.0429114179889     
0.0402677483616     
0.0428875757014     
0.0402453749325     
0.0386874941342     
0.0363040480287     
0.0307739068966     
0.0288780023027     
0.0200214660374     
0.0187879977153     
0.00812518102972    
0.0076246178486     
0.00812518102972    
0.0076246178486     
0.0200214660374     
0.0187879977153     
0.0307739068966     
0.0288780023027     
0.0386874941342     
0.0363040480287     
0.0428875757014     
0.0402453749325     
0.0429114179889     
0.0402677483616     
0.0387330326285     
0.0363468151602     
0.0307550389053     
0.0288602967428     
0.0197552041126     
0.0185381384826     
0.00680920897616    
0.00638970456889    
0.00684156110909    
0.00636064240809    
0.0198490878228     
0.0184538172868     
0.0309011913564     
0.0287290053902     
0.0389171290016     
0.0361814429002     
0.0431153362791     
0.0400845544897     
0.0430913806788     
0.0400622828532     
0.0388713375353     
0.0361388677382     
0.0309201489959     
0.028746630436      
0.0201166161572     
0.0187025228552     
0.00816380262138    
0.00758993631449    
0.00816380262138    
0.00758993631449    
0.0201166161572     
0.0187025228552     
0.0309201489959     
0.028746630436      
0.0388713375353     
0.0361388677382     
0.0430913806788     
0.0400622828532     
0.0431153362791     
0.0400845544897     
0.0389171290016     
0.0361814429002     
0.0309011913564     
0.0287290053902     
0.0198490878228     
0.0184538172868     
0.00684156110909    
0.00636064240809    
0.00650273865608    
0.00600009462539    
0.0188660741096     
0.0174077473702     
0.0293708091257     
0.0271004737711     
0.0369897335068     
0.0341304593135     
0.040980040256      
0.0378123424081     
0.0409572710669     
0.0377912958779     
0.0369462071668     
0.0340903693913     
0.0293888278747     
0.027117099703      
0.0191203356807     
0.0176423547701     
0.00775949527101    
0.00715967184826    
0.00775949527101    
0.00715967184826    
0.0191203356807     
0.0176423547701     
0.0293888278747     
0.027117099703      
0.0369462071668     
0.0340903693913     
0.0409572710669     
0.0377912958779     
0.040980040256      
0.0378123424081     
0.0369897335068     
0.0341304593135     
0.0293708091257     
0.0271004737711     
0.0188660741096     
0.0174077473702     
0.00650273865608    
0.00600009462539    
0.00586898202598    
0.00538806332798    
0.0170273575617     
0.0156320505137     
0.0265082808849     
0.0243360949143     
0.0333846488901     
0.0306489993187     
0.0369860763886     
0.0339552946092     
0.0369654897777     
0.0339363919411     
0.0333454350324     
0.0306129652345     
0.0265245435308     
0.0243510249288     
0.017256838315      
0.0158427631051     
0.00700322016332    
0.00642935393651    
0.00700322016332    
0.00642935393651    
0.017256838315      
0.0158427631051     
0.0265245435308     
0.0243510249288     
0.0333454350324     
0.0306129652345     
0.0369654897777     
0.0339363919411     
0.0369860763886     
0.0339552946092     
0.0333846488901     
0.0306489993187     
0.0265082808849     
0.0243360949143     
0.0170273575617     
0.0156320505137     
0.00586898202598    
0.00538806332798    
0.00503220425606    
0.00461263170621    
0.0145996188624     
0.0133825873274     
0.0227287974319     
0.0208340893882     
0.0286247609119     
0.0262384751799     
0.0317126892173     
0.0290690195988     
0.0316950349729     
0.0290528683532     
0.0285911067212     
0.0262076606213     
0.0227427414229     
0.0208468368271     
0.0147964147926     
0.0135629465001     
0.00600472259852    
0.00550414455736    
0.00600472259852    
0.00550414455736    
0.0147964147926     
0.0135629465001     
0.0227427414229     
0.0208468368271     
0.0285911067212     
0.0262076606213     
0.0316950349729     
0.0290528683532     
0.0317126892173     
0.0290690195988     
0.0286247609119     
0.0262384751799     
0.0227287974319     
0.0208340893882     
0.0145996188624     
0.0133825873274     
0.00503220425606    
0.00461263170621    
0.00408485288421    
0.00375592001461    
0.0118513473316     
0.0108967916284     
0.0184502461526     
0.0169642739805     
0.0232362603281     
0.0213649119848     
0.0257429329154     
0.0236696318911     
0.0257286297146     
0.0236564806539     
0.0232089715764     
0.0213397630193     
0.0184615349398     
0.0169746813833     
0.0120110697936     
0.0110436807725     
0.00487435815224    
0.00448180827621    
0.00487435815224    
0.00448180827621    
0.0120110697936     
0.0110436807725     
0.0184615349398     
0.0169746813833     
0.0232089715764     
0.0213397630193     
0.0257286297146     
0.0236564806539     
0.0257429329154     
0.0236696318911     
0.0232362603281     
0.0213649119848     
0.0184502461526     
0.0169642739805     
0.0118513473316     
0.0108967916284     
0.00408485288421    
0.00375592001461    
0.00310648645603    
0.0028814274573     
0.00901263485754    
0.00835972040807    
0.0140309928998     
0.0130145164202     
0.017670719616      
0.0163904919222     
0.0195769320232     
0.0181586308413     
0.0195660547476     
0.0181485415895     
0.0176499191766     
0.0163712216011     
0.0140396008443     
0.0130224757507     
0.00913412557823    
0.00847238627982    
0.00370686164033    
0.0034383073331     
0.00370686164033    
0.0034383073331     
0.00913412557823    
0.00847238627982    
0.0140396008443     
0.0130224757507     
0.0176499191766     
0.0163712216011     
0.0195660547476     
0.0181485415895     
0.0195769320232     
0.0181586308413     
0.017670719616      
0.0163904919222     
0.0140309928998     
0.0130145164202     
0.00901263485754    
0.00835972040807    
0.00310648645603    
0.0028814274573     
0.00215311226508    
0.00202744193227    
0.00624670125747    
0.00588212890953    
0.00972494206648    
0.00915733020431    
0.0122475994962     
0.0115327716032     
0.0135688201392     
0.0127769237069     
0.0135612810707     
0.0127697872732     
0.0122331999241     
0.0115192311327     
0.00973088956599    
0.00916294817281    
0.00633088949088    
0.00596140355274    
0.00256923427366    
0.00241927837019    
0.00256923427366    
0.00241927837019    
0.00633088949088    
0.00596140355274    
0.00973088956599    
0.00916294817281    
0.0122331999241     
0.0115192311327     
0.0135612810707     
0.0127697872732     
0.0135688201392     
0.0127769237069     
0.0122475994962     
0.0115327716032     
0.00972494206648    
0.00915733020431    
0.00624670125747    
0.00588212890953    
0.00215311226508    
0.00202744193227    
0.00125302988311    
0.00120503419474    
0.00363536095332    
0.00349611737063    
0.00565954969438    
0.00544273915214    
0.00712765534375    
0.00685462873202    
0.00789658476542    
0.007594096255      
0.00789217421163    
0.00758985376706    
0.00711928686869    
0.0068465697115     
0.00566302176373    
0.00544608976891    
0.00368435536105    
0.00354322341598    
0.00149519812029    
0.00143792543695    
0.00149519812029    
0.00143792543695    
0.00368435536105    
0.00354322341598    
0.00566302176373    
0.00544608976891    
0.00711928686869    
0.0068465697115     
0.00789217421163    
0.00758985376706    
0.00789658476542    
0.007594096255      
0.00712765534375    
0.00685462873202    
0.00565954969438    
0.00544273915214    
0.00363536095332    
0.00349611737063    
0.00125302988311    
0.00120503419474    
0.00040761464345    
0.000402122010172   
0.00118259605036    
0.00116665566996    
0.00184105998967    
0.00181625634908    
0.00231864549345    
0.00228740698912    
0.00256877767382    
0.00253416274492    
0.00256734261295    
0.00253274692153    
0.00231591947807    
0.00228471769679    
0.00184219337729    
0.00181737452437    
0.00119853023822    
0.00118237898527    
0.000486392932206   
0.00047983887526    
0.000486392932206   
0.00047983887526    
0.00119853023822    
0.00118237898527    
0.00184219337729    
0.00181737452437    
0.00231591947807    
0.00228471769679    
0.00256734261295    
0.00253274692153    
0.00256877767382    
0.00253416274492    
0.00231864549345    
0.00228740698912    
0.00184105998967    
0.00181625634908    
0.00118259605036    
0.00116665566996    
0.00040761464345    
0.000402122010172   
2.79728083879e-06   
3.03050571352e-05   
8.11703990493e-06   
9.53513252032e-05   
4.71938529091e-05   
0.000185106660808   
0.000120136605627   
0.000266612504885   
0.000205199049226   
0.000300494746967   
0.00026672089245    
0.000263097678296   
0.000271501903963   
0.00016740688174    
0.000209813189541   
6.14933242347e-05   
0.000109357613853   
2.49899542613e-05   
2.77294610779e-06   
3.00485988903e-05   
8.05081789244e-06   
9.46034508647e-05   
4.68377780893e-05   
0.000183875495123   
0.000119335525625   
0.000265250055621   
0.000204149885531   
0.00029965212834    
0.000265971781391   
0.000263313401085   
0.000271731734372   
0.000168539763522   
0.000211211093718   
6.25604790577e-05   
0.000111259143355   
2.61339902089e-05   
2.74649224598e-06   
2.97897731873e-05   
7.97825503133e-06   
9.38818465802e-05   
4.64773145946e-05   
0.000182701121668   
0.000118564094529   
0.000263932216567   
0.000203154831227   
0.00029885697669    
0.000265250055638   
0.000263535748367   
0.000271969110376   
0.000169591169768   
0.000212559733356   
6.3563599083e-05    
0.000113038834378   
2.71883174996e-05   
2.7236992121e-06    
2.95418619003e-05   
7.91631718208e-06   
9.31976837389e-05   
4.61319576151e-05   
0.0001815607205     
0.000117833220722   
0.000262688745163   
0.000202181663772   
0.000298070148906   
0.000264567960013   
0.000263729800725   
0.000272154889293   
0.000170608113685   
0.000213805859635   
6.44928157627e-05   
0.000114705415307   
2.81407606851e-05   
2.70079212793e-06   
2.93238336758e-05   
7.85363335331e-06   
9.25725027245e-05   
4.58296517163e-05   
0.000180537299592   
0.000117166001468   
0.000261559480216   
0.000201314316791   
0.000297396328017   
0.000263952251652   
0.000263922330958   
0.000272363207576   
0.000171497070274   
0.000214942823771   
6.5332514268e-05    
0.000116178771145   
2.89816894339e-05   
2.68073704293e-06   
2.91207855726e-05   
7.79885381879e-06   
9.20193145397e-05   
4.55467373309e-05   
0.000179647514771   
0.000116575096282   
0.000260574277896   
0.000200563851917   
0.000296776739742   
0.00026341954306    
0.000264072098293   
0.00027251823316    
0.000172291406848   
0.000215917036824   
6.60510297597e-05   
0.000117465802738   
2.96942926933e-05   
2.66622745483e-06   
2.89628204636e-05   
7.75962173585e-06   
9.15705706184e-05   
4.53282830673e-05   
0.000178879265423   
0.000116099377821   
0.000259739815763   
0.000199909763859   
0.000296275234995   
0.000262962326681   
0.000264215946868   
0.000272658885399   
0.000172933341789   
0.000216739582492   
6.6640747774e-05    
0.000118514214334   
3.02737673377e-05   
2.65390484066e-06   
2.88362678444e-05   
7.72590588909e-06   
9.12104945386e-05   
4.5152988096e-05    
0.000178304529718   
0.00011571533115    
0.00025910520044    
0.000199425659478   
0.000295879031908   
0.000262621438138   
0.000264309126602   
0.000272761189224   
0.000173431616199   
0.000217357945031   
6.70938367566e-05   
0.00011932069155    
3.07140176996e-05   
2.64467748933e-06   
2.87488595324e-05   
7.70065174526e-06   
9.09665778455e-05   
4.50316753297e-05   
0.000177905849759   
0.000115455797274   
0.000258664243332   
0.000199089743154   
0.000295614585086   
0.000262380873606   
0.000264384062539   
0.000272835273059   
0.000173773479993   
0.000217786772264   
6.74031845455e-05   
0.00011986886494    
3.10111284357e-05   
2.64036627052e-06   
2.87042469158e-05   
7.68896283403e-06   
9.0843972462e-05    
4.49699317824e-05   
0.000177702374858   
0.000115326244444   
0.000258443261426   
0.000198916489316   
0.000295477866706   
0.000262260854438   
0.000264418288042   
0.000272870322302   
0.00017394484877    
0.000218001285136   
6.75572757311e-05   
0.000120144416865   
3.11597698887e-05   
2.64036627052e-06   
7.68896283403e-06   
2.87042469158e-05   
4.49699317824e-05   
9.0843972462e-05    
0.000115326244444   
0.000177702374858   
0.000198916489316   
0.000258443261426   
0.000262260854438   
0.000295477866706   
0.000272870322302   
0.000264418288042   
0.000218001285136   
0.00017394484877    
0.000120144416865   
6.75572757311e-05   
3.11597698887e-05   
2.64467748933e-06   
7.70065174526e-06   
2.87488595324e-05   
4.50316753297e-05   
9.09665778455e-05   
0.000115455797274   
0.000177905849759   
0.000199089743154   
0.000258664243332   
0.000262380873606   
0.000295614585086   
0.000272835273059   
0.000264384062539   
0.000217786772264   
0.000173773479993   
0.00011986886494    
6.74031845455e-05   
3.10111284357e-05   
2.65390484066e-06   
7.72590588909e-06   
2.88362678444e-05   
4.5152988096e-05    
9.12104945386e-05   
0.00011571533115    
0.000178304529718   
0.000199425659478   
0.00025910520044    
0.000262621438138   
0.000295879031908   
0.000272761189224   
0.000264309126602   
0.000217357945031   
0.000173431616199   
0.00011932069155    
6.70938367566e-05   
3.07140176996e-05   
2.66622745483e-06   
7.75962173585e-06   
2.89628204636e-05   
4.53282830673e-05   
9.15705706184e-05   
0.000116099377821   
0.000178879265423   
0.000199909763859   
0.000259739815763   
0.000262962326681   
0.000296275234995   
0.000272658885399   
0.000264215946868   
0.000216739582492   
0.000172933341789   
0.000118514214334   
6.6640747774e-05    
3.02737673377e-05   
2.68073704293e-06   
7.79885381879e-06   
2.91207855726e-05   
4.55467373309e-05   
9.20193145397e-05   
0.000116575096282   
0.000179647514771   
0.000200563851917   
0.000260574277896   
0.00026341954306    
0.000296776739742   
0.00027251823316    
0.000264072098293   
0.000215917036824   
0.000172291406848   
0.000117465802738   
6.60510297597e-05   
2.96942926933e-05   
2.70079212793e-06   
7.85363335331e-06   
2.93238336758e-05   
4.58296517163e-05   
9.25725027245e-05   
0.000117166001468   
0.000180537299592   
0.000201314316791   
0.000261559480216   
0.000263952251652   
0.000297396328017   
0.000272363207576   
0.000263922330958   
0.000214942823771   
0.000171497070274   
0.000116178771145   
6.5332514268e-05    
2.89816894339e-05   
2.7236992121e-06    
7.91631718208e-06   
2.95418619003e-05   
4.61319576151e-05   
9.31976837389e-05   
0.000117833220722   
0.0001815607205     
0.000202181663772   
0.000262688745163   
0.000264567960013   
0.000298070148906   
0.000272154889293   
0.000263729800725   
0.000213805859635   
0.000170608113685   
0.000114705415307   
6.44928157627e-05   
2.81407606851e-05   
2.74649224598e-06   
7.97825503133e-06   
2.97897731873e-05   
4.64773145946e-05   
9.38818465802e-05   
0.000118564094529   
0.000182701121668   
0.000203154831227   
0.000263932216567   
0.000265250055638   
0.00029885697669    
0.000271969110376   
0.000263535748367   
0.000212559733356   
0.000169591169768   
0.000113038834378   
6.3563599083e-05    
2.71883174996e-05   
2.77294610779e-06   
8.05081789244e-06   
3.00485988903e-05   
4.68377780893e-05   
9.46034508647e-05   
0.000119335525625   
0.000183875495123   
0.000204149885531   
0.000265250055621   
0.000265971781391   
0.00029965212834    
0.000271731734372   
0.000263313401085   
0.000211211093718   
0.000168539763522   
0.000111259143355   
6.25604790577e-05   
2.61339902089e-05   
2.79728083879e-06   
8.11703990493e-06   
3.03050571352e-05   
4.71938529091e-05   
9.53513252032e-05   
0.000120136605627   
0.000185106660808   