# vtk DataFile Version 3.0
PyPan mesh file. Generated by PyPan, USU AeroLab (c) 2020.
ASCII
DATASET POLYDATA
POINTS 3162 float
-4.79848623276      -3.0                0.0                 
-4.79848623276      3.0                 0.0                 
-4.79283714294      -2.99178290367      0.0                 
-4.79283714294      2.99178290367       0.0                 
-4.79270172119      -3.00037121773      0.0                 
-4.79270172119      3.00037121773       0.0                 
-4.79269742966      -3.00036668777      -5.808844071e-05    
-4.79269742966      -3.00036668777      5.808844071e-05     
-4.79269742966      3.00036668777       -5.808844071e-05    
-4.79269742966      3.00036668777       5.808844071e-05     
-4.79268360138      -3.00035309792      -0.000114746551844  
-4.79268360138      -3.00035309792      0.000114746551844   
-4.79268360138      3.00035309792       -0.000114746551844  
-4.79268360138      3.00035309792       0.000114746551844   
-4.79266166687      -3.00033092499      -0.0001685792231    
-4.79266166687      -3.00033092499      0.0001685792231     
-4.79266166687      3.00033092499       -0.0001685792231    
-4.79266166687      3.00033092499       0.0001685792231     
-4.79263114929      -3.00030040741      -0.000218260916881  
-4.79263114929      -3.00030040741      0.000218260916881   
-4.79263114929      3.00030040741       -0.000218260916881  
-4.79263114929      3.00030040741       0.000218260916881   
-4.79259300232      -3.00026249886      -0.00026256829733   
-4.79259300232      -3.00026249886      0.00026256829733    
-4.79259300232      3.00026249886       -0.00026256829733   
-4.79259300232      3.00026249886       0.00026256829733    
-4.79254865646      -3.000218153        -0.000300410378259  
-4.79254865646      -3.000218153        0.000300410378259   
-4.79254865646      3.000218153         -0.000300410378259  
-4.79254865646      3.000218153         0.000300410378259   
-4.7924990654       -3.00016856194      -0.000330855342327  
-4.7924990654       -3.00016856194      0.000330855342327   
-4.7924990654       3.00016856194       -0.000330855342327  
-4.7924990654       3.00016856194       0.000330855342327   
-4.7924451828       -3.00011467934      -0.000353153562173  
-4.7924451828       -3.00011467934      0.000353153562173   
-4.7924451828       3.00011467934       -0.000353153562173  
-4.7924451828       3.00011467934       0.000353153562173   
-4.79238891602      -3.00005817413      -0.000366755994037  
-4.79238891602      -3.00005817413      0.000366755994037   
-4.79238891602      3.00005817413       -0.000366755994037  
-4.79238891602      3.00005817413       0.000366755994037   
-4.79233074188      -3.0                -0.000371327652829  
-4.79233074188      -3.0                0.000371327652829   
-4.79233074188      3.0                 -0.000371327652829  
-4.79233074188      3.0                 0.000371327652829   
-4.7866601944       -2.99178290367      -0.000372598995455  
-4.7866601944       -2.99178290367      0.000372598995455   
-4.7866601944       2.99178290367       -0.000372598995455  
-4.7866601944       2.99178290367       0.000372598995455   
-4.7759513855       -2.96722149849      0.0                 
-4.7759513855       2.96722149849       0.0                 
-4.77547359467      -3.00145888329      0.0                 
-4.77547359467      3.00145888329       0.0                 
-4.77545547485      -3.00144100189      -0.000228222386795  
-4.77545547485      -3.00144100189      0.000228222386795   
-4.77545547485      3.00144100189       -0.000228222386795  
-4.77545547485      3.00144100189       0.000228222386795   
-4.77540206909      -3.00138759613      -0.000450825173175  
-4.77540206909      -3.00138759613      0.000450825173175   
-4.77540206909      3.00138759613       -0.000450825173175  
-4.77540206909      3.00138759613       0.000450825173175   
-4.77531480789      -3.00129985809      -0.00066232716199   
-4.77531480789      -3.00129985809      0.00066232716199    
-4.77531480789      3.00129985809       -0.00066232716199   
-4.77531480789      3.00129985809       0.00066232716199    
-4.77519512177      -3.00118017197      -0.000857520441059  
-4.77519512177      -3.00118017197      0.000857520441059   
-4.77519512177      3.00118017197       -0.000857520441059  
-4.77519512177      3.00118017197       0.000857520441059   
-4.77504634857      -3.00103163719      -0.00103159877472   
-4.77504634857      -3.00103163719      0.00103159877472    
-4.77504634857      3.00103163719       -0.00103159877472   
-4.77504634857      3.00103163719       0.00103159877472    
-4.77487230301      -3.00085759163      -0.0011802756926    
-4.77487230301      -3.00085759163      0.0011802756926     
-4.77487230301      3.00085759163       -0.0011802756926    
-4.77487230301      3.00085759163       0.0011802756926     
-4.77467679977      -3.00066232681      -0.00129989022389   
-4.77467679977      -3.00066232681      0.00129989022389    
-4.77467679977      3.00066232681       -0.00129989022389   
-4.77467679977      3.00066232681       0.00129989022389    
-4.77446556091      -3.00045084953      -0.00138749729376   
-4.77446556091      -3.00045084953      0.00138749729376    
-4.77446556091      3.00045084953       -0.00138749729376   
-4.77446556091      3.00045084953       0.00138749729376    
-4.77424287796      -3.00022816658      -0.00144093949348   
-4.77424287796      -3.00022816658      0.00144093949348    
-4.77424287796      3.00022816658       -0.00144093949348   
-4.77424287796      3.00022816658       0.00144093949348    
-4.77401447296      -3.0                -0.00145890098065   
-4.77401447296      -3.0                0.00145890098065    
-4.77401447296      3.0                 -0.00145890098065   
-4.77401447296      3.0                 0.00145890098065    
-4.76971149445      -2.96722149849      -0.000376399140805  
-4.76971149445      -2.96722149849      0.000376399140805   
-4.76971149445      2.96722149849       -0.000376399140805  
-4.76971149445      2.96722149849       0.000376399140805   
-4.76828145981      -2.99178290367      -0.00146389589645   
-4.76828145981      -2.99178290367      0.00146389589645    
-4.76828145981      2.99178290367       -0.00146389589645   
-4.76828145981      2.99178290367       0.00146389589645    
-4.75114536285      -2.96722149849      -0.00147882627789   
-4.75114536285      -2.96722149849      0.00147882627789    
-4.75114536285      2.96722149849       -0.00147882627789   
-4.75114536285      2.96722149849       0.00147882627789    
-4.7480134964       -2.92658472061      0.0                 
-4.7480134964       2.92658472061       0.0                 
-4.74717760086      -3.00318789482      0.0                 
-4.74717760086      3.00318789482       0.0                 
-4.74713850021      -3.00314855576      -0.000498688430525  
-4.74713850021      -3.00314855576      0.000498688430525   
-4.74713850021      3.00314855576       -0.000498688430525  
-4.74713850021      3.00314855576       0.000498688430525   
-4.74702167511      -3.00303173065      -0.00098509748932   
-4.74702167511      -3.00303173065      0.00098509748932    
-4.74702167511      3.00303173065       -0.00098509748932   
-4.74702167511      3.00303173065       0.00098509748932    
-4.74682998657      -3.00284028053      -0.00144725013524   
-4.74682998657      -3.00284028053      0.00144725013524    
-4.74682998657      3.00284028053       -0.00144725013524   
-4.74682998657      3.00284028053       0.00144725013524    
-4.74656867981      -3.00257897377      -0.00187376677059   
-4.74656867981      -3.00257897377      0.00187376677059    
-4.74656867981      3.00257897377       -0.00187376677059   
-4.74656867981      3.00257897377       0.00187376677059    
-4.7462439537       -3.00225424767      -0.00225414498709   
-4.7462439537       -3.00225424767      0.00225414498709    
-4.7462439537       3.00225424767       -0.00225414498709   
-4.7462439537       3.00225424767       0.00225414498709    
-4.74586343765      -3.00187373161      -0.00257901870646   
-4.74586343765      -3.00187373161      0.00257901870646    
-4.74586343765      3.00187373161       -0.00257901870646   
-4.74586343765      3.00187373161       0.00257901870646    
-4.74543714523      -3.00144720078      -0.00284038833342   
-4.74543714523      -3.00144720078      0.00284038833342    
-4.74543714523      3.00144720078       -0.00284038833342   
-4.74543714523      3.00144720078       0.00284038833342    
-4.74497461319      -3.00098514557      -0.00303181819618   
-4.74497461319      -3.00098514557      0.00303181819618    
-4.74497461319      3.00098514557       -0.00303181819618   
-4.74497461319      3.00098514557       0.00303181819618    
-4.74448823929      -3.00049877167      -0.00314859463833   
-4.74448823929      -3.00049877167      0.00314859463833    
-4.74448823929      3.00049877167       -0.00314859463833   
-4.74448823929      3.00049877167       0.00314859463833    
-4.74398994446      -3.0                -0.00318784243427   
-4.74398994446      -3.0                0.00318784243427    
-4.74398994446      3.0                 -0.00318784243427   
-4.74398994446      3.0                 0.00318784243427    
-4.74166917801      -2.92658472061      -0.000382686441299  
-4.74166917801      -2.92658472061      0.000382686441299   
-4.74166917801      2.92658472061       -0.000382686441299  
-4.74166917801      2.92658472061       0.000382686441299   
-4.73815393448      -2.99178290367      -0.00319875683635   
-4.73815393448      -2.99178290367      0.00319875683635    
-4.73815393448      2.99178290367       -0.00319875683635   
-4.73815393448      2.99178290367       0.00319875683635    
-4.72279310226      -2.92658472061      -0.0015035282122    
-4.72279310226      -2.92658472061      0.0015035282122     
-4.72279310226      2.92658472061       -0.0015035282122    
[...]
CELL_DATA 6320
SCALARS panel_area float 1
LOOKUP_TABLE default
0.00012691890338    
0.000125875803188   
0.000377590551299   
0.000374488152472   
0.000618855295667   
0.000613770158053   
0.000844753280934   
0.000837811252802   
0.00104973847899    
0.0010411135832     
0.00122881466971    
0.0012187163863     
0.00137763118491    
0.00136631117129    
0.00149258978689    
0.00148032525745    
0.00157095304396    
0.00155804430809    
0.00161094896275    
0.00159771139366    
0.00161188257843    
0.00159863756945    
0.0015742505141     
0.00156131476047    
0.00149983772906    
0.00148751316894    
0.00139177348456    
0.0013803370464     
0.00125453550079    
0.00124422681625    
0.00109403109212    
0.00108504137274    
0.000918241322815   
0.000910696191426   
0.000739641409971   
0.000733563193534   
0.000582071848469   
0.000577288296282   
0.000492778584495   
0.000488730398818   
0.000492778584495   
0.000488730398818   
0.000582071848469   
0.000577288296282   
0.000739641409971   
0.000733563193534   
0.000918241322815   
0.000910696191426   
0.00109403109212    
0.00108504137274    
0.00125453550079    
0.00124422681625    
0.00139177348456    
0.0013803370464     
0.00149983772906    
0.00148751316894    
0.0015742505141     
0.00156131476047    
0.00161188257843    
0.00159863756945    
0.00161094896275    
0.00159771139366    
0.00157095304396    
0.00155804430809    
0.00149258978689    
0.00148032525745    
0.00137763118491    
0.00136631117129    
0.00122881466971    
0.0012187163863     
0.00104973847899    
0.0010411135832     
0.000844753280934   
0.000837811252802   
0.000618855295667   
0.000613770158053   
0.000377590551299   
0.000374488152472   
0.00012691890338    
0.000125875803188   
0.00037624829966    
0.000366932888891   
0.00111936151251    
0.00109163875109    
0.00183458586258    
0.00178915418131    
0.00250425468254    
0.0024422370465     
0.00311193402728    
0.00303486272863    
0.00364279659753    
0.00355258502484    
0.00408396393413    
0.00398282547198    
0.0044247570689     
0.00431517607685    
0.00465706269944    
0.00454173340186    
0.00477562937208    
0.00465735980041    
0.0047783976318     
0.00466006084216    
0.00466683806227    
0.00455126452108    
0.00444624233314    
0.00433613142733    
0.0041258878466     
0.0040237104621     
0.00371904811221    
0.00362694640631    
0.00324323633744    
0.00316291731719    
0.0027221108728     
0.00265469807121    
0.00219265338253    
0.00213835287434    
0.00172553993722    
0.00168280642659    
0.00146083513519    
0.0014246569231     
0.00146083513519    
0.0014246569231     
0.00172553993722    
0.00168280642659    
0.00219265338253    
0.00213835287434    
0.0027221108728     
0.00265469807121    
0.00324323633744    
0.00316291731719    
0.00371904811221    
0.00362694640631    
0.0041258878466     
0.0040237104621     
0.00444624233314    
0.00433613142733    
0.00466683806227    
0.00455126452108    
0.0047783976318     
0.00466006084216    
0.00477562937208    
0.00465735980041    
0.00465706269944    
0.00454173340186    
0.0044247570689     
0.00431517607685    
0.00408396393413    
0.00398282547198    
0.00364279659753    
0.00355258502484    
0.00311193402728    
0.00303486272863    
0.00250425468254    
0.0024422370465     
0.00183458586258    
0.00178915418131    
0.00111936151251    
0.00109163875109    
0.00037624829966    
0.000366932888891   
0.000607086331581   
0.000581575948684   
0.00180610402335    
0.00173022297812    
0.00296013540364    
0.00283576722876    
0.00404065360114    
0.00387089155766    
0.0050211463427     
0.00481019156165    
0.00587771204652    
0.0056307701389     
0.00658953994981    
0.0063126826357     
0.00713941037194    
0.00683946166153    
0.00751424687979    
0.00719854186331    
0.00770554927344    
0.0073818106452     
0.00771001836547    
0.00738609088483    
0.00753001606165    
0.00721365200657    
0.00717408054139    
0.00687267004181    
0.00665718361836    
0.00637749001764    
0.00600074204501    
0.00574862815901    
0.00523301102374    
0.00501315277574    
0.00439216786513    
0.00420763609943    
0.00353788081346    
0.00338924059301    
0.00278418416518    
0.00266721149466    
0.0023570775903     
0.00225804811017    
0.0023570775903     
0.00225804811017    
0.00278418416518    
0.00266721149466    
0.00353788081346    
0.00338924059301    
0.00439216786513    
0.00420763609943    
0.00523301102374    
0.00501315277574    
0.00600074204501    
0.00574862815901    
0.00665718361836    
0.00637749001764    
0.00717408054139    
0.00687267004181    
0.00753001606165    
0.00721365200657    
0.00771001836547    
0.00738609088483    
0.00770554927344    
0.0073818106452     
0.00751424687979    
0.00719854186331    
0.00713941037194    
0.00683946166153    
0.00658953994981    
0.0063126826357     
0.00587771204652    
0.0056307701389     
0.0050211463427     
0.00481019156165    
0.00404065360114    
0.00387089155766    
0.00296013540364    
0.00283576722876    
0.00180610402335    
0.00173022297812    
0.000607086331581   
0.000581575948684   
0.000805265902658   
0.000756371915445   
0.00239571390178    
0.00225023294574    
0.00392648061453    
0.00368804855247    
0.00535974198519    
0.00503427096779    
0.00666032228699    
0.00625587488599    
0.00779651763679    
0.00732307292681    
0.00874071227373    
0.00820993904354    
0.00947010506471    
0.0088950363238     
0.00996729712125    
0.00936203508765    
0.0102210562002     
0.00960038553594    
0.0102269826151     
0.00960595392562    
0.00998821906119    
0.00938168493668    
0.00951608620406    
0.00893822594923    
0.00883044639621    
0.00829422021451    
0.00795970709523    
0.00747635586402    
0.00694134794782    
0.0065198362308     
0.00582600821201    
0.00547222578308    
0.00469283487414    
0.00440786460963    
0.00369309354328    
0.00346883125638    
0.00312655639979    
0.0029366965249     
0.00312655639979    
0.0029366965249     
0.00369309354328    
0.00346883125638    
0.00469283487414    
0.00440786460963    
0.00582600821201    
0.00547222578308    
0.00694134794782    
0.0065198362308     
0.00795970709523    
0.00747635586402    
0.00883044639621    
0.00829422021451    
0.00951608620406    
0.00893822594923    
0.00998821906119    
0.00938168493668    
0.0102269826151     
0.00960595392562    
0.0102210562002     
0.00960038553594    
0.00996729712125    
0.00936203508765    
0.00947010506471    
0.0088950363238     
0.00874071227373    
0.00820993904354    
0.00779651763679    
0.00732307292681    
0.00666032228699    
0.00625587488599    
0.00535974198519    
0.00503427096779    
0.00392648061453    
0.00368804855247    
0.00239571390178    
0.00225023294574    
0.000805265902658   
0.000756371915445   
0.000958193035674   
0.000879708171883   
0.00285065783031    
0.00261719038952    
0.00467212273359    
0.00428946961295    
0.00637755484174    
0.00585522628795    
0.00792511677596    
0.00727604300247    
0.00927707307644    
0.00851726980707    
0.0104005797904     
0.00954875720718    
0.011268480074      
0.0103455780909     
0.0118600871405     
0.0108887330129     
0.0121620361106     
0.0111659522783     
0.0121690903328     
0.0111724247863     
0.0118849802005     
0.0109115873279     
0.0113231939542     
0.0103958106551     
0.0105073495722     
0.00964678444168    
0.00947125645131    
0.00869554988336    
0.00825951046172    
0.00758304693775    
0.00693236799356    
0.00636459902384    
0.00558400566464    
0.0051266681026     
0.00439441239681    
0.00403450512714    
0.00372028901567    
0.00341559337765    
0.00372028901567    
0.00341559337765    
0.00439441239681    
0.00403450512714    
0.00558400566464    
0.0051266681026     
0.00693236799356    
0.00636459902384    
0.00825951046172    
0.00758304693775    
0.00947125645131    
0.00869554988336    
0.0105073495722     
0.00964678444168    
0.0113231939542     
0.0103958106551     
0.0118849802005     
0.0109115873279     
0.0121690903328     
0.0111724247863     
0.0121620361106     
0.0111659522783     
0.0118600871405     
0.0108887330129     
0.011268480074      
0.0103455780909     
0.0104005797904     
0.00954875720718    
0.00927707307644    
0.00851726980707    
0.00792511677596    
0.00727604300247    
0.00637755484174    
0.00585522628795    
0.00467212273359    
0.00428946961295    
0.00285065783031    
0.00261719038952    
0.000958193035674   
0.000879708171883   
0.00105535997335    
0.000942419766199   
0.00313976618446    
0.00280374520795    
0.0051459502723     
0.00459524061098    
0.0070243424536     
0.00627260239723    
0.00872885438793    
0.00779469008587    
0.0102179175822     
0.00912440588368    
0.0114553626481     
0.0102294162358     
0.012411285142      
0.0110830329342     
0.0130628921452     
0.0116649124164     
0.0133954639817     
0.0119618915191     
0.013403228807      
0.0119688203221     
0.0130903097209     
0.0116893958306     
0.0124715476492     
0.0111368458607     
0.011572962917      
0.0103344323997     
0.010431794794      
0.00931538965653    
0.0090971577063     
0.00812358477143    
0.00763542182863    
0.00681828360097    
0.00615031289006    
0.00549210963734    
0.00484007666114    
0.00432209476513    
0.00409758655837    
0.00365906507627    
0.00409758655837    
0.00365906507627    
0.00484007666114    
0.00432209476513    
0.00615031289006    
0.00549210963734    
0.00763542182863    
0.00681828360097    
0.0090971577063     
0.00812358477143    
0.010431794794      
0.00931538965653    
0.011572962917      
0.0103344323997     
0.0124715476492     
0.0111368458607     
0.0130903097209     
0.0116893958306     
0.013403228807      
0.0119688203221     
0.0133954639817     
0.0119618915191     
0.0130628921452     
0.0116649124164     
0.012411285142      
0.0110830329342     
0.0114553626481     
0.0102294162358     
0.0102179175822     
0.00912440588368    
0.00872885438793    
0.00779469008587    
0.0070243424536     
0.00627260239723    
0.0051459502723     
0.00459524061098    
0.00313976618446    
0.00280374520795    
0.00105535997335    
0.000942419766199   
0.00108894885514    
0.000938150599118   
0.00323967647414    
0.00279104335726    
0.00530971668884    
0.00457442861391    
0.0072478775993     
0.00624419553218    
0.00900662218771    
0.00775940659688    
0.010543084548      
0.00908308533058    
0.0118199038268     
0.010183095943      
0.0128062423717     
0.0110328485644     
0.0134785935067     
0.0116120886117     
0.013821747378      
0.011907727511      
0.0138297534999     
0.0119146241107     
0.0135068836942     
0.0116364611682     
0.0128684222389     
0.0110864203946     
0.0119412482122     
0.0102876371023     
0.0107637628301     
0.00927320808339    
0.00938665396289    
0.00808680276745    
0.00787840230379    
0.00678740771302    
0.00634603233164    
0.00546724028752    
0.00499410133379    
0.00430252379813    
0.00422798252932    
0.00364249604599    
0.00422798252932    
0.00364249604599    
0.00499410133379    
0.00430252379813    
0.00634603233164    
0.00546724028752    
0.00787840230379    
0.00678740771302    
0.00938665396289    
0.00808680276745    
0.0107637628301     
0.00927320808339    
0.0119412482122     
0.0102876371023     
0.0128684222389     
0.0110864203946     
0.0135068836942     
0.0116364611682     
0.0138297534999     
0.0119146241107     
0.013821747378      
0.011907727511      
0.0134785935067     
0.0116120886117     
0.0128062423717     
0.0110328485644     
0.0118199038268     
0.010183095943      
0.010543084548      
0.00908308533058    
0.00900662218771    
0.00775940659688    
0.0072478775993     
0.00624419553218    
0.00530971668884    
0.00457442861391    
0.00323967647414    
0.00279104335726    
0.00108894885514    
0.000938150599118   
0.00105410961216    
0.000863738100824   
0.00313602705274    
0.00256965085811    
0.00513984562736    
0.00421155846117    
0.00701600217714    
0.00574887993605    
0.00871849912611    
0.00714387865402    
0.0102057896255     
0.00836257190144    
0.0114417658139     
0.00937532221417    
0.0123965511313     
0.0101576642221     
0.0130473874612     
0.0106909556392     
0.01337956851       
0.0109631463241     
0.013387317538      
0.010969494638      
0.0130747724947     
0.0107133947716     
0.0124567445606     
0.0102069863835     
0.0115592286728     
0.00947156794734    
0.0104194122607     
0.00853761316918    
0.00908636279977    
0.00744531004119    
0.00762635738306    
0.00624899669345    
0.0061430120767     
0.00503354905932    
0.00483433206086    
0.00396122577279    
0.00409272231283    
0.00335355430942    
0.00409272231283    
0.00335355430942    
0.00483433206086    
0.00396122577279    
0.0061430120767     
0.00503354905932    
0.00762635738306    
0.00624899669345    
0.00908636279977    
0.00744531004119    
0.0104194122607     
0.00853761316918    
0.0115592286728     
0.00947156794734    
0.0124567445606     
0.0102069863835     
0.0130747724947     
0.0107133947716     
0.013387317538      
0.010969494638      
0.01337956851       
0.0109631463241     
0.0130473874612     
0.0106909556392     
0.0123965511313     
0.0101576642221     
0.0114417658139     
0.00937532221417    
0.0102057896255     
0.00836257190144    
0.00871849912611    
0.00714387865402    
0.00701600217714    
0.00574887993605    
0.00513984562736    
0.00421155846117    
0.00313602705274    
0.00256965085811    
0.00105410961216    
0.000863738100824   
0.000948529345487   
0.000750380562899   
0.00282197586821    
0.00223246707343    
0.00462530197392    
0.00365906389765    
0.00631395678666    
0.00499495442311    
0.00784642769892    
0.00620730665005    
0.00918527551325    
0.00726646409104    
0.0102978204584     
0.00814658000752    
0.0111570592235     
0.00882633647187    
0.0117423542942     
0.00928936739103    
0.0120402268405     
0.0095250008297     
0.0120450713118     
0.00952883904137    
0.0117599665346     
0.00930330042682    
0.0111972215678     
0.00885810888155    
0.0103787117689     
0.00821058022047    
0.00933582721896    
0.00738555804904    
0.00810995863595    
0.00641578274131    
0.00675685163487    
0.00534533815519    
0.00536328267653    
0.00424288660162    
0.00409949979832    
0.00324310756921    
0.00333612448818    
0.00263920208089    
0.00333612448818    
0.00263920208089    
0.00409949979832    
0.00324310756921    
0.00536328267653    
0.00424288660162    
0.00675685163487    
0.00534533815519    
0.00810995863595    
0.00641578274131    
0.00933582721896    
0.00738555804904    
0.0103787117689     
0.00821058022047    
0.0111972215678     
0.00885810888155    
0.0117599665346     
0.00930330042682    
0.0120450713118     
0.00952883904137    
0.0120402268405     
0.0095250008297     
0.0117423542942     
0.00928936739103    
0.0111570592235     
0.00882633647187    
0.0102978204584     
0.00814658000752    
0.00918527551325    
0.00726646409104    
0.00784642769892    
0.00620730665005    
0.00631395678666    
0.00499495442311    
0.00462530197392    
0.00365906389765    
0.00282197586821    
0.00223246707343    
0.000948529345487   
0.000750380562899   
0.000809657211481   
0.000787354761196   
0.00240883072732    
0.00234249538708    
0.00394812912493    
0.00383941258994    
0.00538948027015    
0.00524106253127    
0.00669733371565    
0.00651290228362    
0.00783954635556    
0.00762365108556    
0.00878807737061    
0.0085460815057     
0.00951972942195    
0.00925757391008    
0.0100165212274     
0.00974069315007    
0.0102663526132     
0.00998363207202    
0.0102634171157     
0.00998079311085    
0.0100084563225     
0.00973283464337    
0.00950884674934    
0.00924699092192    
0.00877847370062    
0.00853673467344    
0.00783731334192    
0.007621487201      
0.00671106250437    
0.0065262530028     
0.0054316213953     
0.00528204339234    
0.0040405204793     
0.00392925206426    
0.00260691049445    
0.0025351202543     
0.0013641298945     
0.00132656544275    
0.0013641298945     
0.00132656544275    
0.00260691049445    
0.0025351202543     
0.0040405204793     
0.00392925206426    
0.0054316213953     
0.00528204339234    
0.00671106250437    
0.0065262530028     
0.00783731334192    
0.007621487201      
0.00877847370062    
0.00853673467344    
0.00950884674934    
0.00924699092192    
0.0100084563225     
0.00973283464337    
0.0102634171157     
0.00998079311085    
0.0102663526132     
0.00998363207202    
0.0100165212274     
0.00974069315007    
0.00951972942195    
0.00925757391008    
0.00878807737061    
0.0085460815057     
0.00783954635556    
0.00762365108556    
0.00669733371565    
0.00651290228362    
0.00538948027015    
0.00524106253127    
0.00394812912493    
0.00383941258994    
0.00240883072732    
0.00234249538708    
0.000809657211481   
0.000787354761196   
0.000836488431987   
0.000811322712838   
0.00248867522826    
0.00241380296396    
0.00407900526381    
0.00395628255772    
0.00556812302666    
0.00540061566203    
0.00691932999608    
0.00671115773692    
0.00809939337279    
0.00785572546846    
0.00907938663383    
0.0088062396128     
0.0098352786539     
0.00953938263162    
0.0103485462239     
0.0100371946768     
0.0106066453728     
0.0102875594266     
0.0106036292523     
0.0102846012004     
0.0103401973112     
0.0100291297878     
0.00982403525462    
0.0095284774893     
0.00906945655183    
0.00879659993839    
0.00809709446463    
0.00785349571836    
0.00693351386188    
0.00672491489825    
0.0056116612679     
0.00544283598078    
0.00417445104446    
0.00404886514226    
0.00269332058415    
0.0026122913689     
0.00140934773923    
0.0013669475926     
0.00140934773923    
0.0013669475926     
0.00269332058415    
0.0026122913689     
0.00417445104446    
0.00404886514226    
0.0056116612679     
0.00544283598078    
0.00693351386188    
0.00672491489825    
0.00809709446463    
0.00785349571836    
0.00906945655183    
0.00879659993839    
0.00982403525462    
0.0095284774893     
0.0103401973112     
0.0100291297878     
0.0106036292523     
0.0102846012004     
0.0106066453728     
0.0102875594266     
0.0103485462239     
0.0100371946768     
0.0098352786539     
0.00953938263162    
0.00907938663383    
0.0088062396128     
0.00809939337279    
0.00785572546846    
0.00691932999608    
0.00671115773692    
0.00556812302666    
0.00540061566203    
0.00407900526381    
0.00395628255772    
0.00248867522826    
0.00241380296396    
0.000836488431987   
0.000811322712838   
0.000850089094337   
0.000822459454717   
0.00252913858286    
0.00244693974571    
0.00414532047371    
0.00401060313674    
0.00565866627573    
0.00547474914416    
0.00703182829693    
0.00680329173734    
0.00823108542051    
0.00796357448647    
0.00922701675466    
0.00892713398905    
0.00999519059019    
0.0096703559334     
0.0105167889482     
0.0101749774904     
0.0107791165349     
0.0104288035898     
0.0107760169657     
0.0104258041865     
0.0105083386951     
0.0101668024397     
0.00998376437906    
0.00965928360554    
0.00921691647428    
0.00891737042506    
0.00822874912131    
0.0079613141116     
0.00704624278963    
0.00681723774608    
0.00570290391976    
0.00551755779003    
0.00424232676753    
0.00410444826413    
0.00273711110135    
0.00264815297006    
0.00143226231893    
0.00138571797212    
0.00143226231893    
0.00138571797212    
0.00273711110135    
0.00264815297006    
0.00424232676753    
0.00410444826413    
0.00570290391976    
0.00551755779003    
0.00704624278963    
0.00681723774608    
0.00822874912131    
0.0079613141116     
0.00921691647428    
0.00891737042506    
0.00998376437906    
0.00965928360554    
0.0105083386951     
0.0101668024397     
0.0107760169657     
0.0104258041865     
0.0107791165349     
0.0104288035898     
0.0105167889482     
0.0101749774904     
0.00999519059019    
0.0096703559334     
0.00922701675466    
0.00892713398905    
0.00823108542051    