# vtk DataFile Version 3.0
PyPan mesh file. Generated by PyPan, USU AeroLab (c) 2020.
ASCII
DATASET POLYDATA
POINTS 7086 float
-4.84130764008      -1.0                0.0                 
-4.84130764008      6.12323426293e-17   -1.20000004768      
-4.84130764008      1.0                 0.0                 
-4.83982229233      -0.993844151497     0.0                 
-4.83982229233      6.08554063503e-17   -1.19384419918      
-4.83982229233      0.993844151497      0.0                 
-4.83843755722      -1.00044560432      0.0                 
-4.83843755722      6.12323426293e-17   -1.20044565201      
-4.83843755722      1.00044560432       0.0                 
-4.83843517303      -1.0004401207       -6.97061259416e-05  
-4.83843517303      -1.0004401207       6.97061259416e-05   
-4.83843517303      -6.97061259416e-05  -1.20044004917      
-4.83843517303      6.97061259416e-05   -1.20044004917      
-4.83843517303      1.0004401207        -6.97061259416e-05  
-4.83843517303      1.0004401207        6.97061259416e-05   
-4.83842754364      -1.00042378902      -0.000137695868034  
-4.83842754364      -1.00042378902      0.000137695868034   
-4.83842754364      -0.000137695868034  -1.20042383671      
-4.83842754364      0.000137695868034   -1.20042383671      
-4.83842754364      1.00042378902       -0.000137695868034  
-4.83842754364      1.00042378902       0.000137695868034   
-4.83841466904      -1.00039696693      -0.00020229506481   
-4.83841466904      -1.00039696693      0.00020229506481    
-4.83841466904      -0.00020229506481   -1.20039701462      
-4.83841466904      0.00020229506481    -1.20039701462      
-4.83841466904      1.00039696693       -0.00020229506481   
-4.83841466904      1.00039696693       0.00020229506481    
-4.83839797974      -1.00036048889      -0.000261913082795  
-4.83839797974      -1.00036048889      0.000261913082795   
-4.83839797974      -0.000261913082795  -1.20036053658      
-4.83839797974      0.000261913082795   -1.20036053658      
-4.83839797974      1.00036048889       -0.000261913082795  
-4.83839797974      1.00036048889       0.000261913082795   
-4.83837652206      -1.00031507015      -0.000315081939334  
-4.83837652206      -1.00031507015      0.000315081939334   
-4.83837652206      -0.000315081939334  -1.20031511784      
-4.83837652206      0.000315081939334   -1.20031511784      
-4.83837652206      1.00031507015       -0.000315081939334  
-4.83837652206      1.00031507015       0.000315081939334   
-4.83835172653      -1.00026190281      -0.000360492442269  
-4.83835172653      -1.00026190281      0.000360492442269   
-4.83835172653      -0.000360492442269  -1.20026195049      
-4.83835172653      0.000360492442269   -1.20026195049      
-4.83835172653      1.00026190281       -0.000360492442269  
-4.83835172653      1.00026190281       0.000360492442269   
-4.83832406998      -1.00020229816      -0.000397026422434  
-4.83832406998      -1.00020229816      0.000397026422434   
-4.83832406998      -0.000397026422434  -1.20020234585      
-4.83832406998      0.000397026422434   -1.20020234585      
-4.83832406998      1.00020229816       -0.000397026422434  
-4.83832406998      1.00020229816       0.000397026422434   
-4.83829402924      -1.00013768673      -0.000423784280429  
-4.83829402924      -1.00013768673      0.000423784280429   
-4.83829402924      -0.000423784280429  -1.20013773441      
-4.83829402924      0.000423784280429   -1.20013773441      
-4.83829402924      1.00013768673       -0.000423784280429  
-4.83829402924      1.00013768673       0.000423784280429   
-4.83826208115      -1.00006973743      -0.000440107192844  
-4.83826208115      -1.00006973743      0.000440107192844   
-4.83826208115      -0.000440107192844  -1.20006966591      
-4.83826208115      0.000440107192844   -1.20006966591      
-4.83826208115      1.00006973743       -0.000440107192844  
-4.83826208115      1.00006973743       0.000440107192844   
-4.83822965622      -1.0                -0.000445593177574  
-4.83822965622      -1.0                0.000445593177574   
-4.83822965622      -0.000445593177574  -1.20000004768      
-4.83822965622      0.000445593177574   -1.20000004768      
-4.83822965622      1.0                 -0.000445593177574  
-4.83822965622      1.0                 0.000445593177574   
-4.83673286438      -0.993844151497     -0.000447238970082  
-4.83673286438      -0.993844151497     0.000447238970082   
-4.83673286438      -0.000447238970082  -1.19384419918      
-4.83673286438      0.000447238970082   -1.19384419918      
-4.83673286438      0.993844151497      -0.000447238970082  
-4.83673286438      0.993844151497      0.000447238970082   
-4.83540248871      -0.975528240204     0.0                 
-4.83540248871      5.97338751711e-17   -1.17552828789      
-4.83540248871      0.975528240204      0.0                 
-4.83227920532      -0.975528240204     -0.000452135835076  
-4.83227920532      -0.975528240204     0.000452135835076   
-4.83227920532      -0.000452135835076  -1.17552828789      
-4.83227920532      0.000452135835076   -1.17552828789      
-4.83227920532      0.975528240204      -0.000452135835076  
-4.83227920532      0.975528240204      0.000452135835076   
-4.82988834381      -1.00175070763      0.0                 
-4.82988834381      6.12323426293e-17   -1.2017506361       
-4.82988834381      1.00175070763       0.0                 
-4.82987833023      -1.00172913074      -0.000273866869975  
-4.82987833023      -1.00172913074      0.000273866869975   
-4.82987833023      -0.000273866869975  -1.20172917843      
-4.82987833023      0.000273866869975   -1.20172917843      
-4.82987833023      1.00172913074       -0.000273866869975  
-4.82987833023      1.00172913074       0.000273866869975   
-4.82984828949      -1.00166499615      -0.00054099020781   
-4.82984828949      -1.00166499615      0.00054099020781    
-4.82984828949      -0.00054099020781   -1.20166504383      
-4.82984828949      0.00054099020781    -1.20166504383      
-4.82984828949      1.00166499615       -0.00054099020781   
-4.82984828949      1.00166499615       0.00054099020781    
-4.82979917526      -1.00155985355      -0.00079479260603   
-4.82979917526      -1.00155985355      0.00079479260603    
-4.82979917526      -0.00079479260603   -1.20155990124      
-4.82979917526      0.00079479260603    -1.20155990124      
-4.82979917526      1.00155985355       -0.00079479260603   
-4.82979917526      1.00155985355       0.00079479260603    
-4.82973241806      -1.00141632557      -0.00102902459912   
-4.82973241806      -1.00141632557      0.00102902459912    
-4.82973241806      -0.00102902459912   -1.20141637325      
-4.82973241806      0.00102902459912    -1.20141637325      
-4.82973241806      1.00141632557       -0.00102902459912   
-4.82973241806      1.00141632557       0.00102902459912    
-4.82964897156      -1.00123786926      -0.00123791850638   
-4.82964897156      -1.00123786926      0.00123791850638    
-4.82964897156      -0.00123791850638   -1.20123791695      
-4.82964897156      0.00123791850638    -1.20123791695      
-4.82964897156      1.00123786926       -0.00123791850638   
-4.82964897156      1.00123786926       0.00123791850638    
-4.82955169678      -1.00102901459      -0.00141633080784   
-4.82955169678      -1.00102901459      0.00141633080784    
-4.82955169678      -0.00141633080784   -1.20102906227      
-4.82955169678      0.00141633080784    -1.20102906227      
-4.82955169678      1.00102901459       -0.00141633080784   
-4.82955169678      1.00102901459       0.00141633080784    
-4.82944250107      -1.00079476833      -0.00155986833852   
-4.82944250107      -1.00079476833      0.00155986833852    
-4.82944250107      -0.00155986833852   -1.20079481602      
-4.82944250107      0.00155986833852    -1.20079481602      
-4.82944250107      1.00079476833       -0.00155986833852   
-4.82944250107      1.00079476833       0.00155986833852    
-4.82932424545      -1.00054097176      -0.00166499672923   
-4.82932424545      -1.00054097176      0.00166499672923    
-4.82932424545      -0.00166499672923   -1.20054101944      
-4.82932424545      0.00166499672923    -1.20054101944      
-4.82932424545      1.00054097176       -0.00166499672923   
-4.82932424545      1.00054097176       0.00166499672923    
-4.82919931412      -1.00027382374      -0.00172912736889   
-4.82919931412      -1.00027382374      0.00172912736889    
-4.82919931412      -0.00172912736889   -1.20027387142      
-4.82919931412      0.00172912736889    -1.20027387142      
-4.82919931412      1.00027382374       -0.00172912736889   
-4.82919931412      1.00027382374       0.00172912736889    
-4.8290719986       -1.0                -0.00175068108365   
-4.8290719986       -1.0                0.00175068108365    
-4.8290719986       -0.00175068108365   -1.20000004768      
-4.8290719986       0.00175068108365    -1.20000004768      
-4.8290719986       1.0                 -0.00175068108365   
-4.8290719986       1.0                 0.00175068108365    
-4.82815694809      -0.945503234863     0.0                 
-4.82815694809      5.78953769242e-17   -1.14550328255      
-4.82815694809      0.945503234863      0.0                 
-4.82754135132      -0.993844151497     -0.00175714725628   
-4.82754135132      -0.993844151497     0.00175714725628    
-4.82754135132      -0.00175714725628   -1.19384419918      
-4.82754135132      0.00175714725628    -1.19384419918      
-4.82754135132      0.993844151497      -0.00175714725628   
-4.82754135132      0.993844151497      0.00175714725628    
-4.82497882843      -0.945503234863     -0.000460163195385  
-4.82497882843      -0.945503234863     0.000460163195385   
-4.82497882843      -0.000460163195385  -1.14550328255      
-4.82497882843      0.000460163195385   -1.14550328255      
-4.82497882843      0.945503234863      -0.000460163195385  
[...]
CELL_DATA 14160
SCALARS panel_area float 1
LOOKUP_TABLE default
5.14051571285e-05   
5.13344811307e-05   
0.00015287392411    
0.000152664992522   
0.000250373549833   
0.00025003005912    
0.000341424985018   
0.000340957903125   
0.000423768353336   
0.000423188437038   
0.000495403305924   
0.000494724181382   
0.000554605291103   
0.000553846051684   
0.000599953855491   
0.000599132203465   
0.000630360479977   
0.000629497173527   
0.000645125221209   
0.000644241520941   
0.000644001528106   
0.000643119640788   
0.000627259444323   
0.00062640042832    
0.000595716380718   
0.00059490051344    
0.000550713644157   
0.000549959423225   
0.000494055223093   
0.00049337861353    
0.000427985425607   
0.000427399192316   
0.000355400815907   
0.000354914234477   
0.000280744331732   
0.000280359732619   
0.000212803579104   
0.000212512235232   
0.000171231193577   
0.000170996613343   
0.000171231193577   
0.000170996613343   
0.000212803579104   
0.000212512235232   
0.000280744331732   
0.000280359732619   
0.000355400815907   
0.000354914234477   
0.000427985425607   
0.000427399192316   
0.000494055223093   
0.00049337861353    
0.000550713644157   
0.000549959423225   
0.000595716380718   
0.00059490051344    
0.000627259444323   
0.00062640042832    
0.000644001528106   
0.000643119640788   
0.000645125221209   
0.000644241520941   
0.000630360479977   
0.000629497173527   
0.000599953855491   
0.000599132203465   
0.000554605291103   
0.000553846051684   
0.000495403305924   
0.000494724181382   
0.000423768353336   
0.000423188437038   
0.000341424985018   
0.000340957903125   
0.000250373549833   
0.00025003005912    
0.00015287392411    
0.000152664992522   
5.14051571285e-05   
5.13344811307e-05   
0.000153441006722   
0.000152811694738   
0.000456322280651   
0.000454451608811   
0.000747350814924   
0.000744287396752   
0.00101913794114    
0.00101495951231    
0.00126492875859    
0.00125974438269    
0.00147875240213    
0.00147269136718    
0.00165547006272    
0.00164868311355    
0.00179083238546    
0.00178349114472    
0.00188159461313    
0.00187388171518    
0.00192566615424    
0.00191777302915    
0.00192231271875    
0.0019144326029     
0.00187233828606    
0.00186466335037    
0.00177818366613    
0.00177089449122    
0.00164385280612    
0.00163711429132    
0.00147473024421    
0.00146868501073    
0.00127751499408    
0.00127227829946    
0.00106085405418    
0.00105650536423    
0.000838007601298   
0.00083457258859    
0.00063520826648    
0.000632604276059   
0.000511116448717   
0.000509021331576   
0.000511116448717   
0.000509021331576   
0.00063520826648    
0.000632604276059   
0.000838007601298   
0.00083457258859    
0.00106085405418    
0.00105650536423    
0.00127751499408    
0.00127227829946    
0.00147473024421    
0.00146868501073    
0.00164385280612    
0.00163711429132    
0.00177818366613    
0.00177089449122    
0.00187233828606    
0.00186466335037    
0.00192231271875    
0.0019144326029     
0.00192566615424    
0.00191777302915    
0.00188159461313    
0.00187388171518    
0.00179083238546    
0.00178349114472    
0.00165547006272    
0.00164868311355    
0.00147875240213    
0.00147269136718    
0.00126492875859    
0.00125974438269    
0.00101913794114    
0.00101495951231    
0.000747350814924   
0.000744287396752   
0.000456322280651   
0.000454451608811   
0.000153441006722   
0.000152811694738   
0.000252825235039   
0.000251104634204   
0.000751885102581   
0.000746762874072   
0.00123141507683    
0.00122303326818    
0.0016792390991     
0.00166780147836    
0.00208423286785    
0.00207003915356    
0.00243655128974    
0.00241995879834    
0.00272772766421    
0.00270915297464    
0.00295076603918    
0.00293067025426    
0.00310031622798    
0.00307920277819    
0.00317293387412    
0.00315132673058    
0.00316740720848    
0.00314583648749    
0.00308506455421    
0.00306405556671    
0.00292992503422    
0.00290997242109    
0.00270858718972    
0.00269014178167    
0.00242992285253    
0.00241337532743    
0.00210497006784    
0.00209063512467    
0.00174797634583    
0.00173607244929    
0.00138079092063    
0.00137138823697    
0.0010466366807     
0.00103950898305    
0.000842169951853   
0.000836434765724   
0.000842169951853   
0.000836434765724   
0.0010466366807     
0.00103950898305    
0.00138079092063    
0.00137138823697    
0.00174797634583    
0.00173607244929    
0.00210497006784    
0.00209063512467    
0.00242992285253    
0.00241337532743    
0.00270858718972    
0.00269014178167    
0.00292992503422    
0.00290997242109    
0.00308506455421    
0.00306405556671    
0.00316740720848    
0.00314583648749    
0.00317293387412    
0.00315132673058    
0.00310031622798    
0.00307920277819    
0.00295076603918    
0.00293067025426    
0.00272772766421    
0.00270915297464    
0.00243655128974    
0.00241995879834    
0.00208423286785    
0.00207003915356    
0.0016792390991     
0.00166780147836    
0.00123141507683    
0.00122303326818    
0.000751885102581   
0.000746762874072   
0.000252825235039   
0.000251104634204   
0.000347686308465   
0.000344383788923   
0.00103398822511    
0.00102417058849    
0.00169344514039    
0.00167736743268    
0.00230928347134    
0.00228735867439    
0.0028662326399     
0.00283902052906    
0.00335074087062    
0.00331893117517    
0.00375116709531    
0.00371555090105    
0.00405788597778    
0.00401936250668    
0.00426354803812    
0.00422307059906    
0.00436341284708    
0.00432198737188    
0.00435581091519    
0.00431445675352    
0.00424257482032    
0.00420229566302    
0.00402922710611    
0.00399097425307    
0.00372484362996    
0.00368948017372    
0.00334162523745    
0.003309899899      
0.00289475038998    
0.00286726794379    
0.00240381326955    
0.00238099144039    
0.00189886150562    
0.00188083357167    
0.00143933260416    
0.00142566828662    
0.00115815049679    
0.00114715508827    
0.00115815049679    
0.00114715508827    
0.00143933260416    
0.00142566828662    
0.00189886150562    
0.00188083357167    
0.00240381326955    
0.00238099144039    
0.00289475038998    
0.00286726794379    
0.00334162523745    
0.003309899899      
0.00372484362996    
0.00368948017372    
0.00402922710611    
0.00399097425307    
0.00424257482032    
0.00420229566302    
0.00435581091519    
0.00431445675352    
0.00436341284708    
0.00432198737188    
0.00426354803812    
0.00422307059906    
0.00405788597778    
0.00401936250668    
0.00375116709531    
0.00371555090105    
0.00335074087062    
0.00331893117517    
0.0028662326399     
0.00283902052906    
0.00230928347134    
0.00228735867439    
0.00169344514039    
0.00167736743268    
0.00103398822511    
0.00102417058849    
0.000347686308465   
0.000344383788923   
0.000436274993536   
0.000430981460216   
0.00129744787281    
0.00128169200649    
0.00212493586541    
0.00209913137089    
0.00289768973255    
0.00286250808222    
0.00359655031704    
0.00355287955881    
0.00420451456658    
0.00415345803798    
0.00470696351777    
0.00464981175609    
0.00509184043737    
0.00503001338048    
0.00534990358377    
0.00528494211285    
0.00547521415079    
0.00540873058188    
0.00546567414465    
0.00539930956682    
0.00532358533335    
0.00525894342959    
0.0050558774748     
0.00499448604452    
0.00467393635629    
0.00461718338218    
0.00419307348795    
0.00414215928427    
0.00363233496468    
0.00358822956893    
0.00301630630326    
0.00297968122853    
0.00238269230031    
0.00235376059611    
0.00180607627563    
0.00178414512982    
0.00145324802732    
0.00143560246572    
0.00145324802732    
0.00143560246572    
0.00180607627563    
0.00178414512982    
0.00238269230031    
0.00235376059611    
0.00301630630326    
0.00297968122853    
0.00363233496468    
0.00358822956893    
0.00419307348795    
0.00414215928427    
0.00467393635629    
0.00461718338218    
0.0050558774748     
0.00499448604452    
0.00532358533335    
0.00525894342959    
0.00546567414465    
0.00539930956682    
0.00547521415079    
0.00540873058188    
0.00534990358377    
0.00528494211285    
0.00509184043737    
0.00503001338048    
0.00470696351777    
0.00464981175609    
0.00420451456658    
0.00415345803798    
0.00359655031704    
0.00355287955881    
0.00289768973255    
0.00286250808222    
0.00212493586541    
0.00209913137089    
0.00129744787281    
0.00128169200649    
0.000436274993536   
0.000430981460216   
0.000517035755163   
0.000509411199292   
0.00153760814338    
0.00151493718579    
0.00251826603012    
0.00248113318565    
0.00343406656973    
0.00338342418535    
0.00426228496423    
0.00419943286709    
0.00498278125393    
0.00490930779896    
0.00557824210659    
0.00549598468292    
0.00603435883761    
0.00594537543109    
0.00634018936234    
0.0062466971822     
0.00648869470935    
0.00639301278347    
0.00647739259545    
0.00638187478683    
0.00630899948512    
0.00621596850139    
0.00599173774971    
0.00590338345609    
0.0055390988676     
0.00545741897893    
0.00496922641374    
0.00489595051167    
0.00430469330107    
0.00424121646801    
0.00357463578565    
0.00352192377141    
0.00282373731088    
0.00278209885032    
0.00214038636551    
0.00210882484498    
0.00172224985278    
0.0016968530533     
0.00172224985278    
0.0016968530533     
0.00214038636551    
0.00210882484498    
0.00282373731088    
0.00278209885032    
0.00357463578565    
0.00352192377141    
0.00430469330107    
0.00424121646801    
0.00496922641374    
0.00489595051167    
0.0055390988676     
0.00545741897893    
0.00599173774971    
0.00590338345609    
0.00630899948512    
0.00621596850139    
0.00647739259545    
0.00638187478683    
0.00648869470935    
0.00639301278347    
0.00634018936234    
0.0062466971822     
0.00603435883761    
0.00594537543109    
0.00557824210659    
0.00549598468292    
0.00498278125393    
0.00490930779896    
0.00426228496423    
0.00419943286709    
0.00343406656973    
0.00338342418535    
0.00251826603012    
0.00248113318565    
0.00153760814338    
0.00151493718579    
0.000517035755163   
0.000509411199292   
0.000588615349001   
0.0005784347545     
0.00175048226839    
0.00172021256271    
0.00286690416464    
0.00281732202309    
0.00390948495948    
0.0038418773653     
0.00485236803231    
0.00476845408379    
0.00567261558696    
0.00557451217714    
0.00635051004587    
0.00624068552876    
0.00686977285121    
0.00675097000228    
0.00721794461477    
0.00709312139948    
0.00738700962422    
0.00725925749766    
0.00737413988457    
0.00724661616706    
0.00718243819815    
0.00705822462198    
0.0068212518848     
0.00670328814079    
0.00630594805731    
0.00619689495324    
0.00565718151555    
0.00555934720484    
0.00490064825828    
0.00481589762098    
0.00406951860892    
0.00399914160261    
0.00321466445713    
0.00315907063644    
0.002436708561      
0.00239456859583    
0.00196068288873    
0.00192677528784    
0.00196068288873    
0.00192677528784    
0.002436708561      
0.00239456859583    
0.00321466445713    
0.00315907063644    
0.00406951860892    
0.00399914160261    
0.00490064825828    
0.00481589762098    
0.00565718151555    
0.00555934720484    
0.00630594805731    
0.00619689495324    
0.0068212518848     
0.00670328814079    
0.00718243819815    
0.00705822462198    
0.00737413988457    
0.00724661616706    
0.00738700962422    
0.00725925749766    
0.00721794461477    
0.00709312139948    
0.00686977285121    
0.00675097000228    
0.00635051004587    
0.00624068552876    
0.00567261558696    
0.00557451217714    
0.00485236803231    
0.00476845408379    
0.00390948495948    
0.0038418773653     
0.00286690416464    
0.00281732202309    
0.00175048226839    
0.00172021256271    
0.000588615349001   
0.0005784347545     
0.000649931515705   
0.00063707377094    
0.00193283744762    
0.00189461868108    
0.0031655538838     
0.00310295988635    
0.00431674816499    
0.00423139413837    
0.00535785339658    
0.00525190727941    
0.00626354333919    
0.00613969901647    
0.00701205827946    
0.00687340358806    
0.00758541583906    
0.00743543167005    
0.00796985850159    
0.00781226316902    
0.00815652967012    
0.00799524911105    
0.0081423258195     
0.00798132618372    
0.00793064835436    
0.00777383489742    
0.0075318403538     
0.00738290894939    
0.0069628550139     
0.00682517822403    
0.00624650388677    
0.00612298991957    
0.0054111610615     
0.00530416451581    
0.0044934509263     
0.00440459999723    
0.00354954388847    
0.00347935810496    
0.00269054647607    
0.00263734567118    
0.00216493200221    
0.00212212424633    
0.00216493200221    
0.00212212424633    
0.00269054647607    
0.00263734567118    
0.00354954388847    
0.00347935810496    
0.0044934509263     
0.00440459999723    
0.0054111610615     
0.00530416451581    
0.00624650388677    
0.00612298991957    
0.0069628550139     
0.00682517822403    
0.0075318403538     
0.00738290894939    
0.00793064835436    
0.00777383489742    
0.0081423258195     
0.00798132618372    
0.00815652967012    
0.00799524911105    
0.00796985850159    
0.00781226316902    
0.00758541583906    
0.00743543167005    
0.00701205827946    
0.00687340358806    
0.00626354333919    
0.00613969901647    
0.00535785339658    
0.00525190727941    
0.00431674816499    
0.00423139413837    
0.0031655538838     
0.00310295988635    
0.00193283744762    
0.00189461868108    
0.000649931515705   
0.00063707377094    
0.000700176138201   
0.000684655040318   
0.0020822812486     
0.0020361178011     
0.00341030901857    
0.00333470279506    
0.00465051503432    
0.00454741139284    
0.00577211033311    
0.00564414314758    
0.00674783817109    
0.00659822637344    
0.00755421639784    
0.00738674888509    
0.00817191360149    
0.00799073024979    
0.00858607040289    
0.00839571978148    
0.00878718111242    
0.00859237273417    
0.00877187910198    
0.00857739912539    
0.00854383573717    
0.00835441792065    
0.00811418845477    
0.00793429560228    
0.00750121433485    
0.00733491113582    
0.00672947406331    
0.00658028016781    
0.00582954377081    
0.00570030150741    
0.00484087708411    
0.00473355485287    
0.0038239896908     
0.00373920974426    
0.00289857556354    
0.00283431405854    
0.00233232136717    
0.00228061320406    
0.00233232136717    
0.00228061320406    
0.00289857556354    
0.00283431405854    
0.0038239896908     
0.00373920974426    
0.00484087708411    
0.00473355485287    
0.00582954377081    
0.00570030150741    
0.00672947406331    
0.00658028016781    
0.00750121433485    
0.00733491113582    
0.00811418845477    
0.00793429560228    
0.00854383573717    
0.00835441792065    
0.00877187910198    
0.00857739912539    
0.00878718111242    
0.00859237273417    
0.00858607040289    
0.00839571978148    
0.00817191360149    
0.00799073024979    
0.00755421639784    
0.00738674888509    
0.00674783817109    
0.00659822637344    
0.00577211033311    
0.00564414314758    
0.00465051503432    
0.00454741139284    
0.00341030901857    
0.00333470279506    
0.0020822812486     
0.0020361178011     
0.000700176138201   
0.000684655040318   
0.000738857265045   
0.000720783308059   
0.00219731159404    
0.00214353959091    
0.0035987019081     
0.00351065845244    
0.00490741730892    
0.00478733724429    
0.00609097422919    
0.00594194594382    
0.0071205895526     
0.00694636393535    
0.00797153711744    
0.00777648714079    
0.0086233340656     
0.00841234361256    
0.0090603853548     
0.00883869984385    
0.00927260683804    
0.00904572211549    
0.00925644781772    
0.00902996610837    
0.0090158138145     
0.00879521497275    
0.00856243158438    
0.00835293136351    
0.0079155955111     
0.00772191419635    
0.00710122254231    
0.00692747295346    
0.00615157841739    
0.00600106324428    
0.00510829713816    
0.00498330791936    
0.00403523255397    
0.00393649925451    
0.00305869891648    
0.00298385864292    
0.00246116323828    
0.00240094424933    
0.00246116323828    
0.00240094424933    
0.00305869891648    
0.00298385864292    
0.00403523255397    
0.00393649925451    
0.00510829713816    
0.00498330791936    
0.00615157841739    
0.00600106324428    
0.00710122254231    
0.00692747295346    
0.0079155955111     
0.00772191419635    
0.00856243158438    
0.00835293136351    
0.0090158138145     
0.00879521497275    
0.00925644781772    
0.00902996610837    
0.00927260683804    
0.00904572211549    
0.0090603853548     
0.00883869984385    
0.0086233340656     
0.00841234361256    
0.00797153711744    
0.00777648714079    
0.0071205895526     
0.00694636393535    
0.00609097422919    
0.00594194594382    
0.00490741730892    
0.00478733724429    
0.0035987019081     
0.00351065845244    
0.00219731159404    
0.00214353959091    
0.000738857265045   
0.000720783308059   
0.000765762689374   
0.00074535771401    
0.00227730390185    
0.00221662713103    
0.00372973571337    
0.00363034284774    
0.00508608370255    
0.00495056562524    
0.00631274397683    
0.00614452517825    
0.00737984112448    
0.00718319932333    
0.00826176694634    
0.00804161483897    
0.00893730301756    
0.00869915351571    
0.00939026537448    
0.0091400480151     
0.00961020658514    
0.00935412333299    
0.00959346733796    
0.00933783016268    
0.00934406691483    
0.00909508462819    
0.00887418327188    
0.00863771168115    
0.00820378845493    
0.00798518951512    
0.0073597712871     
0.0071636561259     
0.0063755504322     
0.00620565999766    
0.00529428365098    
0.00515321165535    
0.00418215054043    
0.00407070841206    
0.00317006179454    
0.00308559174917    
0.00255077135006    
0.00248280169887    
0.00255077135006    
0.00248280169887    
0.00317006179454    
0.00308559174917    
0.00418215054043    
0.00407070841206    
0.00529428365098    
0.00515321165535    
0.0063755504322     
0.00620565999766    
0.0073597712871     
0.0071636561259     
0.00820378845493    
0.00798518951512    
0.00887418327188    
0.00863771168115    
0.00934406691483    
0.00909508462819    
0.00959346733796    
0.00933783016268    
0.00961020658514    
0.00935412333299    
0.00939026537448    
0.0091400480151     
0.00893730301756    
0.00869915351571    
0.00826176694634    
0.00804161483897    
0.00737984112448    
0.00718319932333    
0.00631274397683    
0.00614452517825    
0.00508608370255    
0.00495056562524    
0.00372973571337    
0.00363034284774    
0.00227730390185    
0.00221662713103    
0.000765762689374   
0.00074535771401    
0.000780972157666   
0.000758579737889   
0.00232254132666    
0.00225591294353    
0.00380380679748    
0.0036946994562     
0.00518711198868    
0.00503832679789    
0.00643812108575    
0.0062534377411     
0.00752642482546    
0.00731053430317    
0.00842585687529    
0.00818417584161    
0.0091148138638     
0.00885336101857    
0.00957677511548    
0.00930206568104    
0.00980107928574    
0.00951994772626    
0.00978400760194    
0.00950336575005    
0.00952966326453    
0.0092563051698     
0.00905043626418    
0.00879083002375    
0.00836673548875    
0.00812674171086    
0.00750594787336    
0.00729064474288    
0.0065021770882     
0.00631566923711    
0.00539944087577    
0.00524456072524    
0.0042652138905     
0.00414287144396    
0.00323302661679    
0.00314028823011    
0.00260143442168    
0.00252681457823    
0.00260143442168    
0.00252681457823    
0.00323302661679    
0.00314028823011    
0.0042652138905     
0.00414287144396    
0.00539944087577    
0.00524456072524    
0.0065021770882     
0.00631566923711    
0.00750594787336    
0.00729064474288    
0.00836673548875    
0.00812674171086    
0.00905043626418    
0.00879083002375    
0.00952966326453    
0.0092563051698     
0.00978400760194    
0.00950336575005    
0.00980107928574    
0.00951994772626    
0.00957677511548    
0.00930206568104    
0.0091148138638     
0.00885336101857    
0.00842585687529    
0.00818417584161    
0.00752642482546    